 Entering Gaussian System, Link 0=g09
 Initial command:
 /home/fb_chem/chemsoft/lx24-amd64/Gaussian_09_C.01_NBO_3.1_64_istanbul-64/g09/l1.exe /local/2397425.1.parallel/Gau-12241.inp -scrdir=/local/2397425.1.parallel/
 Entering Link 1 = /home/fb_chem/chemsoft/lx24-amd64/Gaussian_09_C.01_NBO_3.1_64_istanbul-64/g09/l1.exe PID=     12242.
  
 Copyright (c) 1988,1990,1992,1993,1995,1998,2003,2009,2011,
            Gaussian, Inc.  All Rights Reserved.
  
 This is part of the Gaussian(R) 09 program.  It is based on
 the Gaussian(R) 03 system (copyright 2003, Gaussian, Inc.),
 the Gaussian(R) 98 system (copyright 1998, Gaussian, Inc.),
 the Gaussian(R) 94 system (copyright 1995, Gaussian, Inc.),
 the Gaussian 92(TM) system (copyright 1992, Gaussian, Inc.),
 the Gaussian 90(TM) system (copyright 1990, Gaussian, Inc.),
 the Gaussian 88(TM) system (copyright 1988, Gaussian, Inc.),
 the Gaussian 86(TM) system (copyright 1986, Carnegie Mellon
 University), and the Gaussian 82(TM) system (copyright 1983,
 Carnegie Mellon University). Gaussian is a federally registered
 trademark of Gaussian, Inc.
  
 This software contains proprietary and confidential information,
 including trade secrets, belonging to Gaussian, Inc.
  
 This software is provided under written license and may be
 used, copied, transmitted, or stored only in accord with that
 written license.
  
 The following legend is applicable only to US Government
 contracts under FAR:
  
                    RESTRICTED RIGHTS LEGEND
  
 Use, reproduction and disclosure by the US Government is
 subject to restrictions as set forth in subparagraphs (a)
 and (c) of the Commercial Computer Software - Restricted
 Rights clause in FAR 52.227-19.
  
 Gaussian, Inc.
 340 Quinnipiac St., Bldg. 40, Wallingford CT 06492
  
  
 ---------------------------------------------------------------
 Warning -- This program may not be used in any manner that
 competes with the business of Gaussian, Inc. or will provide
 assistance to any competitor of Gaussian, Inc.  The licensee
 of this program is prohibited from giving any competitor of
 Gaussian, Inc. access to this program.  By using this program,
 the user acknowledges that Gaussian, Inc. is engaged in the
 business of creating and licensing software in the field of
 computational chemistry and represents and warrants to the
 licensee that it is not a competitor of Gaussian, Inc. and that
 it will not use this program in any manner prohibited above.
 ---------------------------------------------------------------
  

 Cite this work as:
 Gaussian 09, Revision C.01,
 M. J. Frisch, G. W. Trucks, H. B. Schlegel, G. E. Scuseria, 
 M. A. Robb, J. R. Cheeseman, G. Scalmani, V. Barone, B. Mennucci, 
 G. A. Petersson, H. Nakatsuji, M. Caricato, X. Li, H. P. Hratchian, 
 A. F. Izmaylov, J. Bloino, G. Zheng, J. L. Sonnenberg, M. Hada, 
 M. Ehara, K. Toyota, R. Fukuda, J. Hasegawa, M. Ishida, T. Nakajima, 
 Y. Honda, O. Kitao, H. Nakai, T. Vreven, J. A. Montgomery, Jr., 
 J. E. Peralta, F. Ogliaro, M. Bearpark, J. J. Heyd, E. Brothers, 
 K. N. Kudin, V. N. Staroverov, T. Keith, R. Kobayashi, J. Normand, 
 K. Raghavachari, A. Rendell, J. C. Burant, S. S. Iyengar, J. Tomasi, 
 M. Cossi, N. Rega, J. M. Millam, M. Klene, J. E. Knox, J. B. Cross, 
 V. Bakken, C. Adamo, J. Jaramillo, R. Gomperts, R. E. Stratmann, 
 O. Yazyev, A. J. Austin, R. Cammi, C. Pomelli, J. W. Ochterski, 
 R. L. Martin, K. Morokuma, V. G. Zakrzewski, G. A. Voth, 
 P. Salvador, J. J. Dannenberg, S. Dapprich, A. D. Daniels, 
 O. Farkas, J. B. Foresman, J. V. Ortiz, J. Cioslowski, 
 and D. J. Fox, Gaussian, Inc., Wallingford CT, 2010.
 
 ******************************************
 Gaussian 09:  AM64L-G09RevC.01 23-Sep-2011
                16-Feb-2018 
 ******************************************
 %nprocs=4
 Will use up to    4 processors via shared memory.
 %chk=frag49-conf1.chk
 ---------------------------------------------------------
 #B3LYP/6-31G* Integral=(Grid=UltraFine) freq Opt pop=none
 ---------------------------------------------------------
 1/14=-1,18=20,19=15,26=3,38=1/1,3;
 2/9=110,12=2,17=6,18=5,40=1/2;
 3/5=1,6=6,7=1,11=2,16=1,25=1,30=1,71=1,74=-5,75=-5/1,2,3;
 4//1;
 5/5=2,38=5/2;
 7//1,2,3,16;
 1/14=-1,18=20,19=15/3(2);
 2/9=110/2;
 99//99;
 2/9=110/2;
 3/5=1,6=6,7=1,11=2,16=1,25=1,30=1,71=1,74=-5,75=-5/1,2,3;
 4/5=5,16=3/1;
 5/5=2,38=5/2;
 7//1,2,3,16;
 1/14=-1,18=20,19=15/3(-5);
 2/9=110/2;
 99/9=1/99;
 -----------------------------
 Optimization for frag49-conf1
 -----------------------------
 Charge =  0 Multiplicity = 1
 Symbolic Z-Matrix:
 C                    -3.79109   3.43542  -2.63662 
 C                    -1.87504   1.84869  -0.4939 
 C                    -4.87564   3.14749  -3.63831 
 C                     0.43941   1.30587   0.16999 
 C                    -2.98637   2.89694  -0.3591 
 N                    -0.71032   2.17498   0.16661 
 N                    -3.94735   2.78156  -1.44199 
 O                    -2.86614   4.21172  -2.86658 
 O                    -2.01642   0.78228  -1.09566 
 H                    -5.72493   3.80939  -3.44958 
 H                    -4.49458   3.32259  -4.64817 
 H                    -5.20462   2.10686  -3.56751 
 H                     0.15536   0.33152   0.57645 
 H                     1.21965   1.75673   0.78718 
 H                     0.79711   1.18158  -0.85557 
 H                    -3.51559   2.72456   0.58267 
 H                    -2.55496   3.90294  -0.35432 
 H                    -0.65063   3.06671   0.65252 
 H                    -4.69624   2.10272  -1.33988 
 

 GradGradGradGradGradGradGradGradGradGradGradGradGradGradGradGradGradGrad
 Berny optimization.
 Initialization pass.
                           ----------------------------
                           !    Initial Parameters    !
                           ! (Angstroms and Degrees)  !
 --------------------------                            --------------------------
 ! Name  Definition              Value          Derivative Info.                !
 --------------------------------------------------------------------------------
 ! R1    R(1,3)                  1.5042         estimate D2E/DX2                !
 ! R2    R(1,7)                  1.3708         estimate D2E/DX2                !
 ! R3    R(1,8)                  1.2293         estimate D2E/DX2                !
 ! R4    R(2,5)                  1.5336         estimate D2E/DX2                !
 ! R5    R(2,6)                  1.3782         estimate D2E/DX2                !
 ! R6    R(2,9)                  1.2326         estimate D2E/DX2                !
 ! R7    R(3,10)                 1.0932         estimate D2E/DX2                !
 ! R8    R(3,11)                 1.0935         estimate D2E/DX2                !
 ! R9    R(3,12)                 1.0937         estimate D2E/DX2                !
 ! R10   R(4,6)                  1.4413         estimate D2E/DX2                !
 ! R11   R(4,13)                 1.0933         estimate D2E/DX2                !
 ! R12   R(4,14)                 1.0922         estimate D2E/DX2                !
 ! R13   R(4,15)                 1.0932         estimate D2E/DX2                !
 ! R14   R(5,7)                  1.4524         estimate D2E/DX2                !
 ! R15   R(5,16)                 1.0939         estimate D2E/DX2                !
 ! R16   R(5,17)                 1.0946         estimate D2E/DX2                !
 ! R17   R(6,18)                 1.0173         estimate D2E/DX2                !
 ! R18   R(7,19)                 1.0159         estimate D2E/DX2                !
 ! A1    A(3,1,7)              114.0078         estimate D2E/DX2                !
 ! A2    A(3,1,8)              122.6048         estimate D2E/DX2                !
 ! A3    A(7,1,8)              123.3696         estimate D2E/DX2                !
 ! A4    A(5,2,6)              114.108          estimate D2E/DX2                !
 ! A5    A(5,2,9)              123.4456         estimate D2E/DX2                !
 ! A6    A(6,2,9)              122.3944         estimate D2E/DX2                !
 ! A7    A(1,3,10)             109.2258         estimate D2E/DX2                !
 ! A8    A(1,3,11)             109.4567         estimate D2E/DX2                !
 ! A9    A(1,3,12)             110.8492         estimate D2E/DX2                !
 ! A10   A(10,3,11)            109.465          estimate D2E/DX2                !
 ! A11   A(10,3,12)            109.3446         estimate D2E/DX2                !
 ! A12   A(11,3,12)            108.4799         estimate D2E/DX2                !
 ! A13   A(6,4,13)             109.3314         estimate D2E/DX2                !
 ! A14   A(6,4,14)             108.8001         estimate D2E/DX2                !
 ! A15   A(6,4,15)             109.1087         estimate D2E/DX2                !
 ! A16   A(13,4,14)            110.0844         estimate D2E/DX2                !
 ! A17   A(13,4,15)            109.4176         estimate D2E/DX2                !
 ! A18   A(14,4,15)            110.0775         estimate D2E/DX2                !
 ! A19   A(2,5,7)              111.0769         estimate D2E/DX2                !
 ! A20   A(2,5,16)             108.5732         estimate D2E/DX2                !
 ! A21   A(2,5,17)             110.0573         estimate D2E/DX2                !
 ! A22   A(7,5,16)             108.0151         estimate D2E/DX2                !
 ! A23   A(7,5,17)             109.6972         estimate D2E/DX2                !
 ! A24   A(16,5,17)            109.3735         estimate D2E/DX2                !
 ! A25   A(2,6,4)              122.177          estimate D2E/DX2                !
 ! A26   A(2,6,18)             119.0813         estimate D2E/DX2                !
 ! A27   A(4,6,18)             118.7293         estimate D2E/DX2                !
 ! A28   A(1,7,5)              122.4425         estimate D2E/DX2                !
 ! A29   A(1,7,19)             119.3635         estimate D2E/DX2                !
 ! A30   A(5,7,19)             117.7679         estimate D2E/DX2                !
 ! D1    D(7,1,3,10)            84.3997         estimate D2E/DX2                !
 ! D2    D(7,1,3,11)          -155.7664         estimate D2E/DX2                !
 ! D3    D(7,1,3,12)           -36.1451         estimate D2E/DX2                !
 ! D4    D(8,1,3,10)           -94.1142         estimate D2E/DX2                !
 ! D5    D(8,1,3,11)            25.7197         estimate D2E/DX2                !
 ! D6    D(8,1,3,12)           145.341          estimate D2E/DX2                !
 ! D7    D(3,1,7,5)            178.183          estimate D2E/DX2                !
 ! D8    D(3,1,7,19)             5.8457         estimate D2E/DX2                !
 ! D9    D(8,1,7,5)             -3.3161         estimate D2E/DX2                !
 ! D10   D(8,1,7,19)          -175.6533         estimate D2E/DX2                !
 ! D11   D(6,2,5,7)            157.7766         estimate D2E/DX2                !
 ! D12   D(6,2,5,16)           -83.5932         estimate D2E/DX2                !
 ! D13   D(6,2,5,17)            36.0916         estimate D2E/DX2                !
 ! D14   D(9,2,5,7)            -24.794          estimate D2E/DX2                !
 ! D15   D(9,2,5,16)            93.8363         estimate D2E/DX2                !
 ! D16   D(9,2,5,17)          -146.479          estimate D2E/DX2                !
 ! D17   D(5,2,6,4)            179.1653         estimate D2E/DX2                !
 ! D18   D(5,2,6,18)            -2.1325         estimate D2E/DX2                !
 ! D19   D(9,2,6,4)              1.7055         estimate D2E/DX2                !
 ! D20   D(9,2,6,18)          -179.5923         estimate D2E/DX2                !
 ! D21   D(13,4,6,2)           -57.5381         estimate D2E/DX2                !
 ! D22   D(13,4,6,18)          123.7553         estimate D2E/DX2                !
 ! D23   D(14,4,6,2)          -177.7937         estimate D2E/DX2                !
 ! D24   D(14,4,6,18)            3.4997         estimate D2E/DX2                !
 ! D25   D(15,4,6,2)            62.0919         estimate D2E/DX2                !
 ! D26   D(15,4,6,18)         -116.6147         estimate D2E/DX2                !
 ! D27   D(2,5,7,1)            -88.1014         estimate D2E/DX2                !
 ! D28   D(2,5,7,19)            84.3518         estimate D2E/DX2                !
 ! D29   D(16,5,7,1)           152.9327         estimate D2E/DX2                !
 ! D30   D(16,5,7,19)          -34.6141         estimate D2E/DX2                !
 ! D31   D(17,5,7,1)            33.7937         estimate D2E/DX2                !
 ! D32   D(17,5,7,19)         -153.7531         estimate D2E/DX2                !
 --------------------------------------------------------------------------------
 Trust Radius=3.00D-01 FncErr=1.00D-07 GrdErr=1.00D-06
 Number of steps in this run=     90 maximum allowed number of steps=    114.
 GradGradGradGradGradGradGradGradGradGradGradGradGradGradGradGradGradGrad

                          Input orientation:                          
 ---------------------------------------------------------------------
 Center     Atomic      Atomic             Coordinates (Angstroms)
 Number     Number       Type             X           Y           Z
 ---------------------------------------------------------------------
      1          6           0       -3.791095    3.435425   -2.636618
      2          6           0       -1.875043    1.848688   -0.493904
      3          6           0       -4.875643    3.147491   -3.638311
      4          6           0        0.439413    1.305874    0.169995
      5          6           0       -2.986372    2.896942   -0.359104
      6          7           0       -0.710318    2.174978    0.166613
      7          7           0       -3.947349    2.781558   -1.441987
      8          8           0       -2.866140    4.211722   -2.866584
      9          8           0       -2.016415    0.782281   -1.095658
     10          1           0       -5.724930    3.809392   -3.449582
     11          1           0       -4.494576    3.322587   -4.648166
     12          1           0       -5.204620    2.106860   -3.567511
     13          1           0        0.155360    0.331515    0.576453
     14          1           0        1.219646    1.756728    0.787179
     15          1           0        0.797110    1.181585   -0.855573
     16          1           0       -3.515589    2.724558    0.582670
     17          1           0       -2.554957    3.902937   -0.354318
     18          1           0       -0.650635    3.066707    0.652521
     19          1           0       -4.696243    2.102718   -1.339878
 ---------------------------------------------------------------------
                    Distance matrix (angstroms):
                    1          2          3          4          5
     1  C    0.000000
     2  C    3.283323   0.000000
     3  C    1.504174   4.536274   0.000000
     4  C    5.505384   2.468221   6.792979   0.000000
     5  C    2.474795   1.533643   3.792798   3.814112   0.000000
     6  N    4.351782   1.378163   5.724784   1.441262   2.445001
     7  N    1.370803   2.462429   2.412359   4.901000   1.452386
     8  O    1.229253   3.492250   2.401302   5.347097   2.833824
     9  O    3.544463   1.232606   4.498276   2.811959   2.440311
    10  H    2.130841   5.234694   1.093171   7.574171   4.228868
    11  H    2.133997   5.127594   1.093470   7.185127   4.566388
    12  H    2.151674   4.538699   1.093687   6.816570   3.979790
    13  H    5.960921   2.751366   7.141774   1.093283   4.162591
    14  H    6.296661   3.350632   7.659748   1.092223   4.506068
    15  H    5.413275   2.777811   6.617292   1.093245   4.183739
    16  H    3.308330   2.148848   4.454807   4.221967   1.093949
    17  H    2.637328   2.168341   4.091564   3.998236   1.094608
    18  H    4.562551   2.072930   6.022330   2.126399   2.551054
    19  H    2.068075   2.956243   2.531112   5.411990   2.125175
                    6          7          8          9         10
     6  N    0.000000
     7  N    3.665228   0.000000
     8  O    4.242190   2.289947   0.000000
     9  O    2.288847   2.800992   3.952123   0.000000
    10  H    6.394882   2.871703   2.945240   5.334552   0.000000
    11  H    6.230546   3.297234   2.572235   5.021429   1.785316
    12  H    5.843549   2.560039   3.223388   4.246082   1.784165
    13  H    2.077432   5.187391   6.003330   2.777724   7.929842
    14  H    2.069976   5.719904   6.005883   3.868684   8.389918
    15  H    2.074617   5.041199   5.161909   2.851843   7.494750
    16  H    2.888717   2.070966   3.811928   2.972666   4.724099
    17  H    2.580678   2.092670   2.550229   3.252399   4.431495
    18  H    1.017276   3.916197   4.313192   3.184350   6.567139
    19  H    4.261729   1.015919   3.182453   2.997444   2.902031
                   11         12         13         14         15
    11  H    0.000000
    12  H    1.774816   0.000000
    13  H    7.606908   7.003832   0.000000
    14  H    8.040350   7.768984   1.791185   0.000000
    15  H    6.853436   6.650677   1.784702   1.791078   0.000000
    16  H    5.355156   4.523093   4.382072   4.837455   4.800904
    17  H    4.747215   4.535550   4.578996   4.489639   4.346650
    18  H    6.552758   6.282416   2.852488   2.287385   2.814960
    19  H    3.531786   2.284909   5.508859   6.296176   5.591061
                   16         17         18         19
    16  H    0.000000
    17  H    1.785871   0.000000
    18  H    2.886158   2.310724   0.000000
    19  H    2.340261   2.966011   4.611494   0.000000
 Stoichiometry    C5H10N2O2
 Framework group  C1[X(C5H10N2O2)]
 Deg. of freedom    51
 Full point group                 C1      NOp   1
 Largest Abelian subgroup         C1      NOp   1
 Largest concise Abelian subgroup C1      NOp   1
                         Standard orientation:                         
 ---------------------------------------------------------------------
 Center     Atomic      Atomic             Coordinates (Angstroms)
 Number     Number       Type             X           Y           Z
 ---------------------------------------------------------------------
      1          6           0       -2.031493    0.296577   -0.112280
      2          6           0        1.178811   -0.331350    0.170318
      3          6           0       -3.306581   -0.398666   -0.503851
      4          6           0        3.453770    0.261803   -0.581245
      5          6           0        0.071164    0.033936    1.166182
      6          7           0        2.301111    0.463449    0.260153
      7          7           0       -1.221438   -0.444641    0.708394
      8          8           0       -1.761089    1.438988   -0.476753
      9          8           0        1.103000   -1.280940   -0.611890
     10          1           0       -4.054078   -0.247689    0.279396
     11          1           0       -3.675158    0.019201   -1.444710
     12          1           0       -3.138740   -1.470439   -0.642713
     13          1           0        3.825952   -0.757385   -0.447058
     14          1           0        4.224843    0.982669   -0.300620
     15          1           0        3.164818    0.408692   -1.625330
     16          1           0        0.290599   -0.447768    2.123539
     17          1           0        0.034583    1.119010    1.305616
     18          1           0        2.311543    1.230570    0.928185
     19          1           0       -1.471385   -1.406707    0.918273
 ---------------------------------------------------------------------
 Rotational constants (GHZ):      3.7735252      0.7767487      0.7492629
 Standard basis: 6-31G(d) (6D, 7F)
 There are   155 symmetry adapted basis functions of A   symmetry.
 Integral buffers will be    131072 words long.
 Raffenetti 2 integral format.
 Two-electron integral symmetry is turned on.
   155 basis functions,   292 primitive gaussians,   155 cartesian basis functions
    35 alpha electrons       35 beta electrons
       nuclear repulsion energy       455.1983661538 Hartrees.
 NAtoms=   19 NActive=   19 NUniq=   19 SFac= 1.00D+00 NAtFMM=   60 NAOKFM=F Big=F
 One-electron integrals computed using PRISM.
 NBasis=   155 RedAO= T  NBF=   155
 NBsUse=   155 1.00D-06 NBFU=   155
 Harris functional with IExCor=  402 diagonalized for initial guess.
 ExpMin= 1.61D-01 ExpMax= 5.48D+03 ExpMxC= 8.25D+02 IAcc=3 IRadAn=         5 AccDes= 0.00D+00
 HarFok:  IExCor=  402 AccDes= 0.00D+00 IRadAn=         5 IDoV= 1
 ScaDFX=  1.000000  1.000000  1.000000  1.000000
 FoFCou: FMM=F IPFlag=           0 FMFlag=      100000 FMFlg1=           0
         NFxFlg=           0 DoJE=T BraDBF=F KetDBF=T FulRan=T
         Omega=  0.000000  0.000000  1.000000  0.000000  0.000000 ICntrl=     500 IOpCl=  0
         NMat0=    1 NMatS0=    1 NMatT0=    0 NMatD0=    1 NMtDS0=    0 NMtDT0=    0
         I1Cent=           4 NGrid=           0.
 Petite list used in FoFCou.
 Initial guess orbital symmetries:
       Occupied  (A) (A) (A) (A) (A) (A) (A) (A) (A) (A) (A) (A)
                 (A) (A) (A) (A) (A) (A) (A) (A) (A) (A) (A) (A)
                 (A) (A) (A) (A) (A) (A) (A) (A) (A) (A) (A)
       Virtual   (A) (A) (A) (A) (A) (A) (A) (A) (A) (A) (A) (A)
                 (A) (A) (A) (A) (A) (A) (A) (A) (A) (A) (A) (A)
                 (A) (A) (A) (A) (A) (A) (A) (A) (A) (A) (A) (A)
                 (A) (A) (A) (A) (A) (A) (A) (A) (A) (A) (A) (A)
                 (A) (A) (A) (A) (A) (A) (A) (A) (A) (A) (A) (A)
                 (A) (A) (A) (A) (A) (A) (A) (A) (A) (A) (A) (A)
                 (A) (A) (A) (A) (A) (A) (A) (A) (A) (A) (A) (A)
                 (A) (A) (A) (A) (A) (A) (A) (A) (A) (A) (A) (A)
                 (A) (A) (A) (A) (A) (A) (A) (A) (A) (A) (A) (A)
                 (A) (A) (A) (A) (A) (A) (A) (A) (A) (A) (A) (A)
 The electronic state of the initial guess is 1-A.
 Requested convergence on RMS density matrix=1.00D-08 within 128 cycles.
 Requested convergence on MAX density matrix=1.00D-06.
 Requested convergence on             energy=1.00D-06.
 No special actions if energy rises.
 Integral accuracy reduced to 1.0D-05 until final iterations.
 Initial convergence to 1.0D-05 achieved.  Increase integral accuracy.
 SCF Done:  E(RB3LYP) =  -456.528494257     A.U. after   14 cycles
             Convg  =    0.8365D-08             -V/T =  2.0094
 Calling FoFJK, ICntrl=      2127 FMM=F ISym2X=0 I1Cent= 0 IOpClX= 0 NMat=1 NMatS=1 NMatT=0.
 ***** Axes restored to original set *****
 -------------------------------------------------------------------
 Center     Atomic                   Forces (Hartrees/Bohr)
 Number     Number              X              Y              Z
 -------------------------------------------------------------------
      1        6           0.010941810    0.003260063    0.000267340
      2        6           0.015753064   -0.012549208    0.003073782
      3        6          -0.001862963   -0.004000286   -0.005734105
      4        6          -0.000775168   -0.002222493   -0.001276216
      5        6          -0.004107233   -0.004521864   -0.009215410
      6        7          -0.018788459    0.011406107   -0.000367885
      7        7          -0.002269716    0.005153053    0.007091315
      8        8          -0.004102460   -0.004620177    0.006585566
      9        8           0.000736628    0.014740001    0.006877589
     10        1          -0.002747319    0.000264935   -0.001862479
     11        1          -0.000834736    0.001827878    0.001808962
     12        1          -0.003464763   -0.000361547   -0.000694111
     13        1           0.003577257   -0.002623490   -0.000639345
     14        1           0.000713057   -0.001325938   -0.000507263
     15        1           0.003795622   -0.003497807    0.000206280
     16        1           0.000626068    0.001396616    0.002387722
     17        1          -0.002997270    0.000183551   -0.001256914
     18        1          -0.000767853   -0.004968663   -0.004928607
     19        1           0.006574435    0.002459269   -0.001816220
 -------------------------------------------------------------------
 Cartesian Forces:  Max     0.018788459 RMS     0.005682004

 GradGradGradGradGradGradGradGradGradGradGradGradGradGradGradGradGradGrad
 Berny optimization.
 Internal  Forces:  Max     0.016194602 RMS     0.004146256
 Search for a local minimum.
 Step number   1 out of a maximum of   90
 All quantities printed in internal units (Hartrees-Bohrs-Radians)
 Mixed Optimization -- RFO/linear search
 Second derivative matrix not updated -- first step.
 ITU=  0
     Eigenvalues ---    0.00321   0.00711   0.00981   0.00999   0.01146
     Eigenvalues ---    0.01265   0.01466   0.01482   0.01981   0.02078
     Eigenvalues ---    0.05178   0.06576   0.07355   0.07508   0.07808
     Eigenvalues ---    0.07836   0.09686   0.13097   0.15909   0.15997
     Eigenvalues ---    0.16000   0.16000   0.16000   0.16000   0.16000
     Eigenvalues ---    0.16000   0.22001   0.22021   0.22057   0.24976
     Eigenvalues ---    0.24992   0.25000   0.25000   0.29090   0.31943
     Eigenvalues ---    0.34286   0.34360   0.34390   0.34415   0.34436
     Eigenvalues ---    0.34440   0.34449   0.34557   0.37934   0.39413
     Eigenvalues ---    0.44776   0.44996   0.49440   0.50823   0.90009
     Eigenvalues ---    0.91398
 RFO step:  Lambda=-4.86794292D-03 EMin= 3.20916729D-03
 Linear search not attempted -- first point.
 Iteration  1 RMS(Cart)=  0.07155887 RMS(Int)=  0.00262279
 Iteration  2 RMS(Cart)=  0.00318235 RMS(Int)=  0.00022820
 Iteration  3 RMS(Cart)=  0.00000661 RMS(Int)=  0.00022817
 Iteration  4 RMS(Cart)=  0.00000000 RMS(Int)=  0.00022817
 Variable       Old X    -DE/DX   Delta X   Delta X   Delta X     New X
                                 (Linear)    (Quad)   (Total)
    R1        2.84248   0.01117   0.00000   0.03446   0.03446   2.87694
    R2        2.59044  -0.00229   0.00000  -0.00447  -0.00447   2.58598
    R3        2.32295  -0.00724   0.00000  -0.00788  -0.00788   2.31508
    R4        2.89817   0.00357   0.00000   0.01208   0.01208   2.91025
    R5        2.60435  -0.01472   0.00000  -0.02947  -0.02947   2.57488
    R6        2.32929  -0.01619   0.00000  -0.01790  -0.01790   2.31139
    R7        2.06579   0.00197   0.00000   0.00565   0.00565   2.07144
    R8        2.06636  -0.00167   0.00000  -0.00478  -0.00478   2.06158
    R9        2.06677   0.00134   0.00000   0.00385   0.00385   2.07061
   R10        2.72359   0.01166   0.00000   0.02922   0.02922   2.75281
   R11        2.06601   0.00117   0.00000   0.00335   0.00335   2.06936
   R12        2.06400  -0.00032   0.00000  -0.00093  -0.00093   2.06308
   R13        2.06593   0.00145   0.00000   0.00414   0.00414   2.07007
   R14        2.74461  -0.00600   0.00000  -0.01563  -0.01563   2.72898
   R15        2.06726   0.00153   0.00000   0.00440   0.00440   2.07166
   R16        2.06851  -0.00102   0.00000  -0.00293  -0.00293   2.06558
   R17        1.92237  -0.00675   0.00000  -0.01492  -0.01492   1.90745
   R18        1.91981  -0.00667   0.00000  -0.01467  -0.01467   1.90514
    A1        1.98981   0.00594   0.00000   0.02297   0.02269   2.01250
    A2        2.13986   0.00316   0.00000   0.01211   0.01179   2.15165
    A3        2.15321  -0.00912   0.00000  -0.03613  -0.03639   2.11682
    A4        1.99156   0.00331   0.00000   0.01323   0.01318   2.00474
    A5        2.15453  -0.00342   0.00000  -0.01319  -0.01324   2.14129
    A6        2.13619   0.00012   0.00000   0.00072   0.00067   2.13686
    A7        1.90635   0.00280   0.00000   0.01372   0.01360   1.91995
    A8        1.91038  -0.00181   0.00000  -0.01155  -0.01156   1.89882
    A9        1.93468   0.00406   0.00000   0.02856   0.02842   1.96310
   A10        1.91052  -0.00203   0.00000  -0.02029  -0.02028   1.89025
   A11        1.90842  -0.00326   0.00000  -0.01845  -0.01868   1.88974
   A12        1.89333   0.00014   0.00000   0.00731   0.00728   1.90061
   A13        1.90819   0.00498   0.00000   0.03050   0.03013   1.93832
   A14        1.89892   0.00018   0.00000   0.00000  -0.00008   1.89884
   A15        1.90431   0.00615   0.00000   0.03810   0.03771   1.94201
   A16        1.92134  -0.00289   0.00000  -0.01918  -0.01923   1.90211
   A17        1.90970  -0.00501   0.00000  -0.02809  -0.02875   1.88095
   A18        1.92122  -0.00323   0.00000  -0.02019  -0.02028   1.90094
   A19        1.93866   0.00408   0.00000   0.02113   0.02101   1.95966
   A20        1.89496  -0.00202   0.00000  -0.00344  -0.00377   1.89119
   A21        1.92086   0.00165   0.00000   0.01312   0.01330   1.93416
   A22        1.88522   0.00130   0.00000   0.01848   0.01830   1.90352
   A23        1.91458  -0.00468   0.00000  -0.03645  -0.03641   1.87816
   A24        1.90893  -0.00036   0.00000  -0.01288  -0.01281   1.89612
   A25        2.13239  -0.00279   0.00000  -0.01248  -0.01252   2.11987
   A26        2.07836   0.00040   0.00000   0.00007   0.00003   2.07839
   A27        2.07222   0.00238   0.00000   0.01207   0.01202   2.08424
   A28        2.13702  -0.00463   0.00000  -0.02218  -0.02285   2.11418
   A29        2.08329   0.00224   0.00000   0.00716   0.00648   2.08977
   A30        2.05544   0.00222   0.00000   0.00742   0.00675   2.06218
    D1        1.47305   0.00030   0.00000  -0.01336  -0.01352   1.45953
    D2       -2.71864  -0.00157   0.00000  -0.03678  -0.03706  -2.75570
    D3       -0.63085  -0.00002   0.00000  -0.01732  -0.01766  -0.64851
    D4       -1.64260   0.00116   0.00000   0.03105   0.03141  -1.61120
    D5        0.44889  -0.00072   0.00000   0.00763   0.00787   0.45676
    D6        2.53668   0.00083   0.00000   0.02709   0.02727   2.56395
    D7        3.10988  -0.00042   0.00000  -0.01440  -0.01479   3.09509
    D8        0.10203   0.00093   0.00000   0.05292   0.05249   0.15452
    D9       -0.05788  -0.00107   0.00000  -0.05837  -0.05795  -0.11582
   D10       -3.06573   0.00028   0.00000   0.00895   0.00934  -3.05639
   D11        2.75372  -0.00210   0.00000  -0.06938  -0.06931   2.68441
   D12       -1.45898   0.00066   0.00000  -0.03636  -0.03630  -1.49528
   D13        0.62992  -0.00003   0.00000  -0.04636  -0.04638   0.58353
   D14       -0.43274  -0.00178   0.00000  -0.05034  -0.05033  -0.48307
   D15        1.63775   0.00097   0.00000  -0.01731  -0.01733   1.62042
   D16       -2.55654   0.00029   0.00000  -0.02732  -0.02741  -2.58395
   D17        3.12702  -0.00071   0.00000  -0.02205  -0.02203   3.10500
   D18       -0.03722  -0.00105   0.00000  -0.03945  -0.03936  -0.07658
   D19        0.02977  -0.00092   0.00000  -0.04046  -0.04055  -0.01078
   D20       -3.13448  -0.00126   0.00000  -0.05786  -0.05788   3.09083
   D21       -1.00423  -0.00049   0.00000  -0.01158  -0.01184  -1.01607
   D22        2.15994  -0.00014   0.00000   0.00591   0.00570   2.16563
   D23       -3.10309  -0.00007   0.00000  -0.00649  -0.00650  -3.10958
   D24        0.06108   0.00029   0.00000   0.01100   0.01104   0.07212
   D25        1.08371   0.00008   0.00000  -0.00464  -0.00444   1.07927
   D26       -2.03531   0.00044   0.00000   0.01286   0.01310  -2.02221
   D27       -1.53766  -0.00026   0.00000  -0.00434  -0.00414  -1.54180
   D28        1.47222  -0.00158   0.00000  -0.07061  -0.07036   1.40186
   D29        2.66918  -0.00099   0.00000  -0.02396  -0.02414   2.64504
   D30       -0.60413  -0.00231   0.00000  -0.09024  -0.09036  -0.69449
   D31        0.58981   0.00135   0.00000   0.00149   0.00139   0.59120
   D32       -2.68350   0.00003   0.00000  -0.06478  -0.06484  -2.74833
         Item               Value     Threshold  Converged?
 Maximum Force            0.016195     0.000450     NO 
 RMS     Force            0.004146     0.000300     NO 
 Maximum Displacement     0.240519     0.001800     NO 
 RMS     Displacement     0.072136     0.001200     NO 
 Predicted change in Energy=-2.587582D-03
 GradGradGradGradGradGradGradGradGradGradGradGradGradGradGradGradGradGrad

                          Input orientation:                          
 ---------------------------------------------------------------------
 Center     Atomic      Atomic             Coordinates (Angstroms)
 Number     Number       Type             X           Y           Z
 ---------------------------------------------------------------------
      1          6           0       -3.795815    3.426879   -2.598820
      2          6           0       -1.886529    1.835480   -0.451438
      3          6           0       -4.853678    3.159797   -3.660575
      4          6           0        0.438057    1.304407    0.152464
      5          6           0       -3.014179    2.878694   -0.342687
      6          7           0       -0.710091    2.200698    0.130967
      7          7           0       -3.973323    2.762082   -1.415959
      8          8           0       -2.885786    4.233985   -2.744626
      9          8           0       -2.040904    0.749998   -0.993616
     10          1           0       -5.723594    3.805604   -3.493999
     11          1           0       -4.435333    3.394526   -4.640390
     12          1           0       -5.193913    2.118238   -3.660250
     13          1           0        0.191065    0.360452    0.649552
     14          1           0        1.252378    1.788867    0.694738
     15          1           0        0.777563    1.069144   -0.862113
     16          1           0       -3.528368    2.732791    0.614467
     17          1           0       -2.608702    3.893387   -0.370320
     18          1           0       -0.624247    3.125912    0.525244
     19          1           0       -4.682996    2.049605   -1.344401
 ---------------------------------------------------------------------
                    Distance matrix (angstroms):
                    1          2          3          4          5
     1  C    0.000000
     2  C    3.284688   0.000000
     3  C    1.522409   4.566875   0.000000
     4  C    5.477237   2.459763   6.781165   0.000000
     5  C    2.449817   1.540037   3.804098   3.826419   0.000000
     6  N    4.298482   1.362566   5.697804   1.456724   2.448029
     7  N    1.368439   2.478629   2.443666   4.903574   1.444115
     8  O    1.225085   3.465553   2.421868   5.293722   2.760908
     9  O    3.580794   1.223136   4.564154   2.786775   2.429469
    10  H    2.158960   5.278412   1.096160   7.584103   4.258036
    11  H    2.139635   5.145323   1.090939   7.147725   4.555877
    12  H    2.189487   4.616841   1.095722   6.849686   4.041752
    13  H    5.987496   2.775659   7.201594   1.095058   4.195196
    14  H    6.246187   3.341949   7.624442   1.091733   4.524099
    15  H    5.430547   2.802375   6.626695   1.095436   4.233388
    16  H    3.298257   2.153359   4.496083   4.241021   1.096276
    17  H    2.567699   2.182451   4.050166   4.032227   1.093059
    18  H    4.461973   2.052432   5.950657   2.141340   2.554642
    19  H    2.063381   2.943376   2.574164   5.387124   2.115602
                    6          7          8          9         10
     6  N    0.000000
     7  N    3.654697   0.000000
     8  O    4.139679   2.261547   0.000000
     9  O    2.267219   2.821542   3.989741   0.000000
    10  H    6.391503   2.910437   2.966180   5.399153   0.000000
    11  H    6.169968   3.318192   2.588379   5.101547   1.772798
    12  H    5.872375   2.634619   3.262239   4.350228   1.776347
    13  H    2.113651   5.232236   5.999310   2.798827   8.001330
    14  H    2.082961   5.719277   5.910349   3.843890   8.383133
    15  H    2.116539   5.073825   5.194246   2.839524   7.528617
    16  H    2.908536   2.078815   3.734971   2.954649   4.780109
    17  H    2.592529   2.058009   2.414563   3.254503   4.412214
    18  H    1.009378   3.888052   4.127280   3.155760   6.528372
    19  H    4.240697   1.008156   3.156281   2.965245   2.964313
                   11         12         13         14         15
    11  H    0.000000
    12  H    1.779053   0.000000
    13  H    7.654584   7.117738   0.000000
    14  H    7.961896   7.786467   1.780111   0.000000
    15  H    6.845221   6.677476   1.769563   1.779673   0.000000
    16  H    5.373453   4.628706   4.411735   4.873702   4.846550
    17  H    4.671075   4.545119   4.621738   4.524520   4.436777
    18  H    6.424975   6.278186   2.885820   2.310441   2.849584
    19  H    3.568430   2.372531   5.530421   6.281300   5.568806
                   16         17         18         19
    16  H    0.000000
    17  H    1.778364   0.000000
    18  H    2.931966   2.308487   0.000000
    19  H    2.374252   2.941269   4.596461   0.000000
 Stoichiometry    C5H10N2O2
 Framework group  C1[X(C5H10N2O2)]
 Deg. of freedom    51
 Full point group                 C1      NOp   1
 Largest Abelian subgroup         C1      NOp   1
 Largest concise Abelian subgroup C1      NOp   1
                         Standard orientation:                         
 ---------------------------------------------------------------------
 Center     Atomic      Atomic             Coordinates (Angstroms)
 Number     Number       Type             X           Y           Z
 ---------------------------------------------------------------------
      1          6           0       -2.019676    0.287155   -0.119240
      2          6           0        1.189653   -0.340424    0.189837
      3          6           0       -3.313062   -0.375975   -0.572165
      4          6           0        3.436572    0.276689   -0.598175
      5          6           0        0.049763    0.013555    1.163010
      6          7           0        2.259219    0.502816    0.229323
      7          7           0       -1.231507   -0.469739    0.704487
      8          8           0       -1.723254    1.442705   -0.397936
      9          8           0        1.152517   -1.318983   -0.543038
     10          1           0       -4.087946   -0.247814    0.192489
     11          1           0       -3.653379    0.107203   -1.489155
     12          1           0       -3.190341   -1.448375   -0.760593
     13          1           0        3.878843   -0.703969   -0.393581
     14          1           0        4.174101    1.051430   -0.379755
     15          1           0        3.186457    0.314861   -1.663991
     16          1           0        0.274776   -0.436928    2.136795
     17          1           0       -0.031088    1.096282    1.289274
     18          1           0        2.218190    1.319983    0.820423
     19          1           0       -1.457200   -1.439986    0.859609
 ---------------------------------------------------------------------
 Rotational constants (GHZ):      3.7375055      0.7829719      0.7504547
 Standard basis: 6-31G(d) (6D, 7F)
 There are   155 symmetry adapted basis functions of A   symmetry.
 Integral buffers will be    131072 words long.
 Raffenetti 2 integral format.
 Two-electron integral symmetry is turned on.
   155 basis functions,   292 primitive gaussians,   155 cartesian basis functions
    35 alpha electrons       35 beta electrons
       nuclear repulsion energy       455.7958043064 Hartrees.
 NAtoms=   19 NActive=   19 NUniq=   19 SFac= 1.00D+00 NAtFMM=   60 NAOKFM=F Big=F
 One-electron integrals computed using PRISM.
 NBasis=   155 RedAO= T  NBF=   155
 NBsUse=   155 1.00D-06 NBFU=   155
 Initial guess read from the read-write file.
 B after Tr=     0.000000    0.000000    0.000000
         Rot=    1.000000    0.000000    0.000000    0.000000 Ang=   0.00 deg.
 Initial guess orbital symmetries:
       Occupied  (A) (A) (A) (A) (A) (A) (A) (A) (A) (A) (A) (A)
                 (A) (A) (A) (A) (A) (A) (A) (A) (A) (A) (A) (A)
                 (A) (A) (A) (A) (A) (A) (A) (A) (A) (A) (A)
       Virtual   (A) (A) (A) (A) (A) (A) (A) (A) (A) (A) (A) (A)
                 (A) (A) (A) (A) (A) (A) (A) (A) (A) (A) (A) (A)
                 (A) (A) (A) (A) (A) (A) (A) (A) (A) (A) (A) (A)
                 (A) (A) (A) (A) (A) (A) (A) (A) (A) (A) (A) (A)
                 (A) (A) (A) (A) (A) (A) (A) (A) (A) (A) (A) (A)
                 (A) (A) (A) (A) (A) (A) (A) (A) (A) (A) (A) (A)
                 (A) (A) (A) (A) (A) (A) (A) (A) (A) (A) (A) (A)
                 (A) (A) (A) (A) (A) (A) (A) (A) (A) (A) (A) (A)
                 (A) (A) (A) (A) (A) (A) (A) (A) (A) (A) (A) (A)
                 (A) (A) (A) (A) (A) (A) (A) (A) (A) (A) (A) (A)
 Harris functional with IExCor=  402 diagonalized for initial guess.
 ExpMin= 1.61D-01 ExpMax= 5.48D+03 ExpMxC= 8.25D+02 IAcc=3 IRadAn=         5 AccDes= 0.00D+00
 HarFok:  IExCor=  402 AccDes= 0.00D+00 IRadAn=         5 IDoV= 1
 ScaDFX=  1.000000  1.000000  1.000000  1.000000
 FoFCou: FMM=F IPFlag=           0 FMFlag=      100000 FMFlg1=           0
         NFxFlg=           0 DoJE=T BraDBF=F KetDBF=T FulRan=T
         Omega=  0.000000  0.000000  1.000000  0.000000  0.000000 ICntrl=     500 IOpCl=  0
         NMat0=    1 NMatS0=    1 NMatT0=    0 NMatD0=    1 NMtDS0=    0 NMtDT0=    0
         I1Cent=           4 NGrid=           0.
 Petite list used in FoFCou.
 Requested convergence on RMS density matrix=1.00D-08 within 128 cycles.
 Requested convergence on MAX density matrix=1.00D-06.
 Requested convergence on             energy=1.00D-06.
 No special actions if energy rises.
 Integral accuracy reduced to 1.0D-05 until final iterations.
 Initial convergence to 1.0D-05 achieved.  Increase integral accuracy.
 SCF Done:  E(RB3LYP) =  -456.530885407     A.U. after   12 cycles
             Convg  =    0.8042D-08             -V/T =  2.0093
 Calling FoFJK, ICntrl=      2127 FMM=F ISym2X=0 I1Cent= 0 IOpClX= 0 NMat=1 NMatS=1 NMatT=0.
 ***** Axes restored to original set *****
 -------------------------------------------------------------------
 Center     Atomic                   Forces (Hartrees/Bohr)
 Number     Number              X              Y              Z
 -------------------------------------------------------------------
      1        6           0.000138671    0.003463445    0.001971850
      2        6           0.004685747   -0.000413270   -0.000832230
      3        6           0.001294444   -0.001515206   -0.000374191
      4        6          -0.000254294    0.000705479    0.000001333
      5        6          -0.000405180   -0.000882147   -0.001371329
      6        7          -0.001674177   -0.000965091    0.001237849
      7        7          -0.003179992    0.000392557    0.003109367
      8        8           0.000266384   -0.000404423   -0.003323791
      9        8          -0.002521690   -0.000680782   -0.000112065
     10        1           0.000102729    0.000256533    0.000269751
     11        1           0.000358002    0.000630881   -0.000045668
     12        1          -0.000200495    0.000277830    0.000599116
     13        1          -0.000838766    0.000398367    0.000049709
     14        1           0.000185636    0.000361994    0.000313597
     15        1          -0.000743867    0.000544886   -0.000254206
     16        1          -0.000069697    0.000362158    0.000373669
     17        1           0.000059034    0.000140843    0.000362763
     18        1           0.001329374    0.000072604   -0.000691787
     19        1           0.001468136   -0.002746656   -0.001283736
 -------------------------------------------------------------------
 Cartesian Forces:  Max     0.004685747 RMS     0.001368593

 GradGradGradGradGradGradGradGradGradGradGradGradGradGradGradGradGradGrad
 Berny optimization.
 Using GEDIIS/GDIIS optimizer.
 Internal  Forces:  Max     0.004247067 RMS     0.001007790
 Search for a local minimum.
 Step number   2 out of a maximum of   90
 All quantities printed in internal units (Hartrees-Bohrs-Radians)
 Mixed Optimization -- RFO/linear search
 Update second derivatives using D2CorX and points    1    2
 DE= -2.39D-03 DEPred=-2.59D-03 R= 9.24D-01
 SS=  1.41D+00  RLast= 2.52D-01 DXNew= 5.0454D-01 7.5451D-01
 Trust test= 9.24D-01 RLast= 2.52D-01 DXMaxT set to 5.05D-01
 ITU=  1  0
 Use linear search instead of GDIIS.
     Eigenvalues ---    0.00318   0.00711   0.00942   0.01001   0.01146
     Eigenvalues ---    0.01316   0.01412   0.01484   0.01967   0.02086
     Eigenvalues ---    0.05070   0.06480   0.07098   0.07454   0.07489
     Eigenvalues ---    0.07682   0.09898   0.13038   0.15787   0.15846
     Eigenvalues ---    0.15996   0.16000   0.16000   0.16000   0.16000
     Eigenvalues ---    0.16767   0.21684   0.22024   0.22148   0.24481
     Eigenvalues ---    0.24979   0.25000   0.27438   0.29124   0.32798
     Eigenvalues ---    0.34291   0.34336   0.34395   0.34425   0.34437
     Eigenvalues ---    0.34441   0.34478   0.34600   0.37706   0.40948
     Eigenvalues ---    0.44710   0.45336   0.48544   0.51506   0.90391
     Eigenvalues ---    0.91460
 RFO step:  Lambda=-1.09926026D-03 EMin= 3.18445714D-03
 Quartic linear search produced a step of -0.02084.
 Iteration  1 RMS(Cart)=  0.05630588 RMS(Int)=  0.00176042
 Iteration  2 RMS(Cart)=  0.00246423 RMS(Int)=  0.00028755
 Iteration  3 RMS(Cart)=  0.00000384 RMS(Int)=  0.00028755
 Iteration  4 RMS(Cart)=  0.00000000 RMS(Int)=  0.00028755
 Variable       Old X    -DE/DX   Delta X   Delta X   Delta X     New X
                                 (Linear)    (Quad)   (Total)
    R1        2.87694  -0.00133  -0.00072   0.00346   0.00275   2.87968
    R2        2.58598   0.00235   0.00009   0.00350   0.00359   2.58957
    R3        2.31508   0.00033   0.00016  -0.00137  -0.00120   2.31387
    R4        2.91025   0.00013  -0.00025   0.00305   0.00280   2.91305
    R5        2.57488  -0.00114   0.00061  -0.00864  -0.00803   2.56685
    R6        2.31139   0.00097   0.00037  -0.00285  -0.00247   2.30892
    R7        2.07144   0.00011  -0.00012   0.00154   0.00142   2.07286
    R8        2.06158   0.00031   0.00010  -0.00016  -0.00006   2.06152
    R9        2.07061  -0.00020  -0.00008   0.00027   0.00019   2.07080
   R10        2.75281  -0.00254  -0.00061   0.00013  -0.00048   2.75233
   R11        2.06936  -0.00013  -0.00007   0.00036   0.00029   2.06965
   R12        2.06308   0.00045   0.00002   0.00107   0.00109   2.06417
   R13        2.07007  -0.00011  -0.00009   0.00059   0.00050   2.07057
   R14        2.72898  -0.00088   0.00033  -0.00564  -0.00531   2.72367
   R15        2.07166   0.00031  -0.00009   0.00183   0.00174   2.07340
   R16        2.06558   0.00014   0.00006  -0.00023  -0.00017   2.06541
   R17        1.90745  -0.00009   0.00031  -0.00344  -0.00313   1.90432
   R18        1.90514   0.00082   0.00031  -0.00144  -0.00113   1.90401
    A1        2.01250  -0.00168  -0.00047  -0.00012  -0.00125   2.01124
    A2        2.15165  -0.00250  -0.00025  -0.00578  -0.00669   2.14496
    A3        2.11682   0.00425   0.00076   0.01007   0.01016   2.12698
    A4        2.00474  -0.00030  -0.00027   0.00126   0.00052   2.00525
    A5        2.14129  -0.00247   0.00028  -0.01283  -0.01300   2.12829
    A6        2.13686   0.00275  -0.00001   0.01028   0.00977   2.14663
    A7        1.91995  -0.00057  -0.00028  -0.00185  -0.00214   1.91782
    A8        1.89882  -0.00042   0.00024  -0.00439  -0.00417   1.89465
    A9        1.96310  -0.00009  -0.00059   0.00629   0.00569   1.96879
   A10        1.89025   0.00021   0.00042  -0.00467  -0.00426   1.88598
   A11        1.88974   0.00016   0.00039  -0.00431  -0.00391   1.88583
   A12        1.90061   0.00075  -0.00015   0.00867   0.00852   1.90912
   A13        1.93832  -0.00111  -0.00063  -0.00062  -0.00124   1.93708
   A14        1.89884   0.00016   0.00000   0.00161   0.00161   1.90045
   A15        1.94201  -0.00115  -0.00079   0.00091   0.00013   1.94214
   A16        1.90211   0.00058   0.00040  -0.00012   0.00028   1.90239
   A17        1.88095   0.00094   0.00060  -0.00198  -0.00137   1.87958
   A18        1.90094   0.00064   0.00042   0.00017   0.00059   1.90153
   A19        1.95966  -0.00097  -0.00044   0.00072   0.00028   1.95995
   A20        1.89119  -0.00015   0.00008  -0.00432  -0.00423   1.88696
   A21        1.93416   0.00072  -0.00028   0.00883   0.00856   1.94272
   A22        1.90352   0.00053  -0.00038   0.00558   0.00520   1.90872
   A23        1.87816   0.00023   0.00076  -0.00527  -0.00451   1.87365
   A24        1.89612  -0.00036   0.00027  -0.00572  -0.00545   1.89067
   A25        2.11987  -0.00063   0.00026  -0.00568  -0.00554   2.11433
   A26        2.07839   0.00132   0.00000   0.00713   0.00701   2.08540
   A27        2.08424  -0.00071  -0.00025  -0.00244  -0.00281   2.08143
   A28        2.11418  -0.00030   0.00048  -0.00917  -0.00981   2.10437
   A29        2.08977   0.00003  -0.00014  -0.00360  -0.00487   2.08490
   A30        2.06218   0.00006  -0.00014  -0.00263  -0.00392   2.05827
    D1        1.45953   0.00068   0.00028   0.04261   0.04275   1.50227
    D2       -2.75570   0.00034   0.00077   0.03323   0.03387  -2.72182
    D3       -0.64851   0.00093   0.00037   0.04518   0.04542  -0.60309
    D4       -1.61120  -0.00051  -0.00065  -0.02433  -0.02486  -1.63606
    D5        0.45676  -0.00084  -0.00016  -0.03371  -0.03373   0.42303
    D6        2.56395  -0.00025  -0.00057  -0.02176  -0.02219   2.54176
    D7        3.09509  -0.00073   0.00031  -0.06297  -0.06279   3.03230
    D8        0.15452   0.00054  -0.00109   0.02705   0.02568   0.18021
    D9       -0.11582   0.00014   0.00121   0.00182   0.00331  -0.11252
   D10       -3.05639   0.00141  -0.00019   0.09184   0.09178  -2.96461
   D11        2.68441   0.00013   0.00144  -0.03923  -0.03795   2.64646
   D12       -1.49528   0.00008   0.00076  -0.03471  -0.03412  -1.52940
   D13        0.58353  -0.00002   0.00097  -0.03916  -0.03837   0.54517
   D14       -0.48307  -0.00051   0.00105  -0.09437  -0.09315  -0.57622
   D15        1.62042  -0.00055   0.00036  -0.08985  -0.08931   1.53111
   D16       -2.58395  -0.00065   0.00057  -0.09430  -0.09356  -2.67751
   D17        3.10500  -0.00046   0.00046  -0.03681  -0.03653   3.06846
   D18       -0.07658  -0.00091   0.00082  -0.06583  -0.06529  -0.14187
   D19       -0.01078   0.00026   0.00084   0.01856   0.01969   0.00890
   D20        3.09083  -0.00019   0.00121  -0.01047  -0.00907   3.08175
   D21       -1.01607  -0.00002   0.00025  -0.01153  -0.01124  -1.02731
   D22        2.16563   0.00038  -0.00012   0.01738   0.01723   2.18287
   D23       -3.10958  -0.00016   0.00014  -0.01203  -0.01186  -3.12144
   D24        0.07212   0.00024  -0.00023   0.01688   0.01662   0.08874
   D25        1.07927  -0.00035   0.00009  -0.01384  -0.01372   1.06555
   D26       -2.02221   0.00005  -0.00027   0.01507   0.01476  -2.00745
   D27       -1.54180  -0.00023   0.00009  -0.01638  -0.01635  -1.55814
   D28        1.40186  -0.00148   0.00147  -0.10511  -0.10360   1.29825
   D29        2.64504   0.00021   0.00050  -0.01519  -0.01473   2.63031
   D30       -0.69449  -0.00104   0.00188  -0.10392  -0.10199  -0.79648
   D31        0.59120   0.00022  -0.00003  -0.00847  -0.00854   0.58265
   D32       -2.74833  -0.00103   0.00135  -0.09720  -0.09580  -2.84413
         Item               Value     Threshold  Converged?
 Maximum Force            0.004247     0.000450     NO 
 RMS     Force            0.001008     0.000300     NO 
 Maximum Displacement     0.198958     0.001800     NO 
 RMS     Displacement     0.056907     0.001200     NO 
 Predicted change in Energy=-5.960299D-04
 GradGradGradGradGradGradGradGradGradGradGradGradGradGradGradGradGradGrad

                          Input orientation:                          
 ---------------------------------------------------------------------
 Center     Atomic      Atomic             Coordinates (Angstroms)
 Number     Number       Type             X           Y           Z
 ---------------------------------------------------------------------
      1          6           0       -3.815887    3.470448   -2.557347
      2          6           0       -1.898389    1.835131   -0.448298
      3          6           0       -4.819244    3.157017   -3.660610
      4          6           0        0.423789    1.302317    0.131524
      5          6           0       -3.029715    2.874716   -0.323222
      6          7           0       -0.711462    2.213915    0.092766
      7          7           0       -3.989943    2.769307   -1.392899
      8          8           0       -2.916608    4.290849   -2.689690
      9          8           0       -2.090330    0.724476   -0.919959
     10          1           0       -5.716990    3.774646   -3.534902
     11          1           0       -4.368077    3.407812   -4.621667
     12          1           0       -5.128550    2.105775   -3.667286
     13          1           0        0.176173    0.390820    0.685912
     14          1           0        1.261437    1.801454    0.623811
     15          1           0        0.729905    1.005379   -0.877774
     16          1           0       -3.535775    2.714321    0.636995
     17          1           0       -2.635812    3.894127   -0.338051
     18          1           0       -0.594890    3.159885    0.419960
     19          1           0       -4.638028    1.998151   -1.371026
 ---------------------------------------------------------------------
                    Distance matrix (angstroms):
                    1          2          3          4          5
     1  C    0.000000
     2  C    3.286206   0.000000
     3  C    1.523862   4.538472   0.000000
     4  C    5.468608   2.452060   6.731240   0.000000
     5  C    2.442187   1.541518   3.797403   3.821769   0.000000
     6  N    4.270764   1.358316   5.643682   1.456472   2.446221
     7  N    1.370341   2.477812   2.445521   4.894585   1.441304
     8  O    1.224449   3.477234   2.418323   5.296114   2.760144
     9  O    3.633036   1.221827   4.568961   2.785733   2.421171
    10  H    2.159246   5.279258   1.096912   7.567315   4.283248
    11  H    2.137816   5.098009   1.090908   7.070213   4.533436
    12  H    2.194854   4.568268   1.095822   6.775321   4.022331
    13  H    5.994947   2.770609   7.176232   1.095211   4.179211
    14  H    6.219689   3.336923   7.560986   1.092309   4.523577
    15  H    5.437073   2.789421   6.570144   1.095701   4.235173
    16  H    3.294542   2.152178   4.506960   4.234077   1.097196
    17  H    2.548991   2.189843   4.043527   4.037220   1.092968
    18  H    4.397229   2.051330   5.873349   2.138098   2.561642
    19  H    2.061779   2.895449   2.572548   5.325771   2.110197
                    6          7          8          9         10
     6  N    0.000000
     7  N    3.641990   0.000000
     8  O    4.113196   2.269098   0.000000
     9  O    2.268329   2.830819   4.066165   0.000000
    10  H    6.375827   2.929433   2.970351   5.412406   0.000000
    11  H    6.084579   3.312947   2.572752   5.107942   1.770647
    12  H    5.801754   2.628600   3.259284   4.322797   1.774520
    13  H    2.112675   5.228306   6.014167   2.797711   7.999683
    14  H    2.084339   5.707964   5.884933   3.844145   8.359835
    15  H    2.116612   5.064955   5.232056   2.834504   7.502775
    16  H    2.919475   2.080808   3.733047   2.910825   4.825631
    17  H    2.590721   2.052217   2.401341   3.268464   4.441598
    18  H    1.007722   3.868513   4.042199   3.156413   6.500367
    19  H    4.196088   1.007559   3.155729   2.883830   3.000409
                   11         12         13         14         15
    11  H    0.000000
    12  H    1.784506   0.000000
    13  H    7.610707   7.073295   0.000000
    14  H    7.860462   7.703120   1.780883   0.000000
    15  H    6.765933   6.581318   1.769015   1.780735   0.000000
    16  H    5.369095   4.629697   4.379453   4.883313   4.838495
    17  H    4.646140   4.527224   4.607486   4.526921   4.468134
    18  H    6.302096   6.194417   2.886692   2.309295   2.842726
    19  H    3.553405   2.350533   5.476408   6.230711   5.481204
                   16         17         18         19
    16  H    0.000000
    17  H    1.775553   0.000000
    18  H    2.982354   2.297619   0.000000
    19  H    2.400003   2.944594   4.572113   0.000000
 Stoichiometry    C5H10N2O2
 Framework group  C1[X(C5H10N2O2)]
 Deg. of freedom    51
 Full point group                 C1      NOp   1
 Largest Abelian subgroup         C1      NOp   1
 Largest concise Abelian subgroup C1      NOp   1
                         Standard orientation:                         
 ---------------------------------------------------------------------
 Center     Atomic      Atomic             Coordinates (Angstroms)
 Number     Number       Type             X           Y           Z
 ---------------------------------------------------------------------
      1          6           0       -2.025415    0.296916   -0.090959
      2          6           0        1.187270   -0.337488    0.183518
      3          6           0       -3.278056   -0.385839   -0.626581
      4          6           0        3.418395    0.297466   -0.611160
      5          6           0        0.047708   -0.000170    1.165298
      6          7           0        2.229120    0.533961    0.195689
      7          7           0       -1.230267   -0.483699    0.706672
      8          8           0       -1.741628    1.460456   -0.345744
      9          8           0        1.183445   -1.360615   -0.484357
     10          1           0       -4.091264   -0.300065    0.104548
     11          1           0       -3.588524    0.124891   -1.539184
     12          1           0       -3.123809   -1.449629   -0.839619
     13          1           0        3.887656   -0.656470   -0.347936
     14          1           0        4.131916    1.105453   -0.434572
     15          1           0        3.174512    0.265167   -1.678885
     16          1           0        0.284294   -0.459339    2.133301
     17          1           0       -0.045092    1.079142    1.310398
     18          1           0        2.155320    1.387886    0.725660
     19          1           0       -1.410925   -1.472911    0.769880
 ---------------------------------------------------------------------
 Rotational constants (GHZ):      3.6541782      0.7905363      0.7522473
 Standard basis: 6-31G(d) (6D, 7F)
 There are   155 symmetry adapted basis functions of A   symmetry.
 Integral buffers will be    131072 words long.
 Raffenetti 2 integral format.
 Two-electron integral symmetry is turned on.
   155 basis functions,   292 primitive gaussians,   155 cartesian basis functions
    35 alpha electrons       35 beta electrons
       nuclear repulsion energy       456.0488879526 Hartrees.
 NAtoms=   19 NActive=   19 NUniq=   19 SFac= 1.00D+00 NAtFMM=   60 NAOKFM=F Big=F
 One-electron integrals computed using PRISM.
 NBasis=   155 RedAO= T  NBF=   155
 NBsUse=   155 1.00D-06 NBFU=   155
 Initial guess read from the read-write file.
 B after Tr=     0.000000    0.000000    0.000000
         Rot=    1.000000    0.000000    0.000000    0.000000 Ang=   0.00 deg.
 Initial guess orbital symmetries:
       Occupied  (A) (A) (A) (A) (A) (A) (A) (A) (A) (A) (A) (A)
                 (A) (A) (A) (A) (A) (A) (A) (A) (A) (A) (A) (A)
                 (A) (A) (A) (A) (A) (A) (A) (A) (A) (A) (A)
       Virtual   (A) (A) (A) (A) (A) (A) (A) (A) (A) (A) (A) (A)
                 (A) (A) (A) (A) (A) (A) (A) (A) (A) (A) (A) (A)
                 (A) (A) (A) (A) (A) (A) (A) (A) (A) (A) (A) (A)
                 (A) (A) (A) (A) (A) (A) (A) (A) (A) (A) (A) (A)
                 (A) (A) (A) (A) (A) (A) (A) (A) (A) (A) (A) (A)
                 (A) (A) (A) (A) (A) (A) (A) (A) (A) (A) (A) (A)
                 (A) (A) (A) (A) (A) (A) (A) (A) (A) (A) (A) (A)
                 (A) (A) (A) (A) (A) (A) (A) (A) (A) (A) (A) (A)
                 (A) (A) (A) (A) (A) (A) (A) (A) (A) (A) (A) (A)
                 (A) (A) (A) (A) (A) (A) (A) (A) (A) (A) (A) (A)
 Harris functional with IExCor=  402 diagonalized for initial guess.
 ExpMin= 1.61D-01 ExpMax= 5.48D+03 ExpMxC= 8.25D+02 IAcc=3 IRadAn=         5 AccDes= 0.00D+00
 HarFok:  IExCor=  402 AccDes= 0.00D+00 IRadAn=         5 IDoV= 1
 ScaDFX=  1.000000  1.000000  1.000000  1.000000
 FoFCou: FMM=F IPFlag=           0 FMFlag=      100000 FMFlg1=           0
         NFxFlg=           0 DoJE=T BraDBF=F KetDBF=T FulRan=T
         Omega=  0.000000  0.000000  1.000000  0.000000  0.000000 ICntrl=     500 IOpCl=  0
         NMat0=    1 NMatS0=    1 NMatT0=    0 NMatD0=    1 NMtDS0=    0 NMtDT0=    0
         I1Cent=           4 NGrid=           0.
 Petite list used in FoFCou.
 Requested convergence on RMS density matrix=1.00D-08 within 128 cycles.
 Requested convergence on MAX density matrix=1.00D-06.
 Requested convergence on             energy=1.00D-06.
 No special actions if energy rises.
 Integral accuracy reduced to 1.0D-05 until final iterations.
 Initial convergence to 1.0D-05 achieved.  Increase integral accuracy.
 SCF Done:  E(RB3LYP) =  -456.531452387     A.U. after   12 cycles
             Convg  =    0.5421D-08             -V/T =  2.0093
 Calling FoFJK, ICntrl=      2127 FMM=F ISym2X=0 I1Cent= 0 IOpClX= 0 NMat=1 NMatS=1 NMatT=0.
 ***** Axes restored to original set *****
 -------------------------------------------------------------------
 Center     Atomic                   Forces (Hartrees/Bohr)
 Number     Number              X              Y              Z
 -------------------------------------------------------------------
      1        6           0.003009363   -0.005185609   -0.003186954
      2        6          -0.002522601    0.002014494    0.005137110
      3        6          -0.001036745    0.001813760    0.001373482
      4        6           0.000795701    0.000441337   -0.000231828
      5        6           0.001957660    0.000700674   -0.000102709
      6        7           0.002129809   -0.002607250    0.000283701
      7        7          -0.003462233    0.003398323    0.001223192
      8        8          -0.001227169    0.002402454   -0.000387412
      9        8          -0.000876054   -0.003177892   -0.003168495
     10        1           0.000003915   -0.000050808   -0.000052541
     11        1           0.000363262    0.000009258   -0.000084286
     12        1           0.000476229    0.000389129    0.000536335
     13        1          -0.000848650    0.000579194    0.000060468
     14        1          -0.000141875    0.000214439    0.000098080
     15        1          -0.000582522    0.000620928   -0.000071454
     16        1           0.000284774   -0.000241968   -0.000154660
     17        1           0.000284310   -0.000026501    0.000273874
     18        1           0.000655946    0.001411532   -0.000515666
     19        1           0.000736881   -0.002705495   -0.001030236
 -------------------------------------------------------------------
 Cartesian Forces:  Max     0.005185609 RMS     0.001746022

 GradGradGradGradGradGradGradGradGradGradGradGradGradGradGradGradGradGrad
 Berny optimization.
 Using GEDIIS/GDIIS optimizer.
 Internal  Forces:  Max     0.004249421 RMS     0.000977508
 Search for a local minimum.
 Step number   3 out of a maximum of   90
 All quantities printed in internal units (Hartrees-Bohrs-Radians)
 Mixed Optimization -- En-DIIS/RFO-DIIS
 Update second derivatives using D2CorX and points    1    2    3
 DE= -5.67D-04 DEPred=-5.96D-04 R= 9.51D-01
 SS=  1.41D+00  RLast= 2.99D-01 DXNew= 8.4853D-01 8.9554D-01
 Trust test= 9.51D-01 RLast= 2.99D-01 DXMaxT set to 8.49D-01
 ITU=  1  1  0
 Use linear search instead of GDIIS.
     Eigenvalues ---    0.00222   0.00532   0.00714   0.01082   0.01146
     Eigenvalues ---    0.01257   0.01499   0.01952   0.02073   0.03254
     Eigenvalues ---    0.05149   0.06521   0.07101   0.07479   0.07607
     Eigenvalues ---    0.07673   0.09970   0.12822   0.15560   0.15803
     Eigenvalues ---    0.15990   0.16000   0.16000   0.16000   0.16149
     Eigenvalues ---    0.16986   0.21955   0.22061   0.22883   0.23904
     Eigenvalues ---    0.24994   0.25175   0.26917   0.29234   0.32962
     Eigenvalues ---    0.34291   0.34354   0.34407   0.34424   0.34436
     Eigenvalues ---    0.34440   0.34541   0.34599   0.38602   0.41019
     Eigenvalues ---    0.44833   0.45963   0.49618   0.52456   0.91269
     Eigenvalues ---    0.95001
 RFO step:  Lambda=-1.33404812D-03 EMin= 2.22037143D-03
 Quartic linear search produced a step of  0.01677.
 Iteration  1 RMS(Cart)=  0.10322440 RMS(Int)=  0.00564436
 Iteration  2 RMS(Cart)=  0.00664397 RMS(Int)=  0.00070610
 Iteration  3 RMS(Cart)=  0.00002297 RMS(Int)=  0.00070576
 Iteration  4 RMS(Cart)=  0.00000006 RMS(Int)=  0.00070576
 Variable       Old X    -DE/DX   Delta X   Delta X   Delta X     New X
                                 (Linear)    (Quad)   (Total)
    R1        2.87968  -0.00160   0.00005   0.00492   0.00497   2.88465
    R2        2.58957   0.00141   0.00006   0.00588   0.00594   2.59551
    R3        2.31387   0.00075  -0.00002  -0.00209  -0.00211   2.31176
    R4        2.91305  -0.00081   0.00005   0.00303   0.00308   2.91612
    R5        2.56685   0.00179  -0.00013  -0.01154  -0.01168   2.55517
    R6        2.30892   0.00425  -0.00004  -0.00200  -0.00204   2.30688
    R7        2.07286  -0.00004   0.00002   0.00257   0.00259   2.07545
    R8        2.06152   0.00023   0.00000  -0.00033  -0.00033   2.06118
    R9        2.07080  -0.00051   0.00000  -0.00038  -0.00038   2.07043
   R10        2.75233  -0.00177  -0.00001   0.00063   0.00062   2.75295
   R11        2.06965  -0.00026   0.00000   0.00028   0.00028   2.06993
   R12        2.06417   0.00003   0.00002   0.00122   0.00124   2.06540
   R13        2.07057  -0.00027   0.00001   0.00065   0.00066   2.07123
   R14        2.72367   0.00195  -0.00009  -0.00463  -0.00472   2.71895
   R15        2.07340  -0.00023   0.00003   0.00225   0.00228   2.07568
   R16        2.06541   0.00007   0.00000  -0.00052  -0.00053   2.06488
   R17        1.90432   0.00123  -0.00005  -0.00394  -0.00399   1.90032
   R18        1.90401   0.00157  -0.00002  -0.00088  -0.00090   1.90311
    A1        2.01124  -0.00080  -0.00002  -0.00111  -0.00149   2.00976
    A2        2.14496  -0.00098  -0.00011  -0.01004  -0.01050   2.13446
    A3        2.12698   0.00177   0.00017   0.01101   0.01082   2.13779
    A4        2.00525   0.00070   0.00001   0.00724   0.00698   2.01224
    A5        2.12829  -0.00106  -0.00022  -0.01956  -0.02006   2.10823
    A6        2.14663   0.00045   0.00016   0.01543   0.01534   2.16197
    A7        1.91782   0.00036  -0.00004   0.00218   0.00213   1.91995
    A8        1.89465  -0.00023  -0.00007  -0.00814  -0.00822   1.88643
    A9        1.96879  -0.00095   0.00010   0.00603   0.00612   1.97491
   A10        1.88598   0.00017  -0.00007  -0.00654  -0.00663   1.87935
   A11        1.88583   0.00027  -0.00007  -0.00652  -0.00659   1.87924
   A12        1.90912   0.00043   0.00014   0.01261   0.01276   1.92188
   A13        1.93708  -0.00123  -0.00002  -0.00315  -0.00317   1.93391
   A14        1.90045   0.00004   0.00003   0.00240   0.00242   1.90287
   A15        1.94214  -0.00088   0.00000   0.00188   0.00188   1.94402
   A16        1.90239   0.00061   0.00000   0.00032   0.00033   1.90272
   A17        1.87958   0.00098  -0.00002  -0.00199  -0.00201   1.87756
   A18        1.90153   0.00053   0.00001   0.00053   0.00053   1.90206
   A19        1.95995  -0.00128   0.00000  -0.00138  -0.00140   1.95855
   A20        1.88696  -0.00051  -0.00007  -0.01370  -0.01373   1.87323
   A21        1.94272   0.00076   0.00014   0.01888   0.01904   1.96176
   A22        1.90872   0.00056   0.00009   0.00881   0.00888   1.91760
   A23        1.87365   0.00061  -0.00008  -0.00514  -0.00524   1.86841
   A24        1.89067  -0.00010  -0.00009  -0.00753  -0.00755   1.88312
   A25        2.11433   0.00056  -0.00009  -0.00699  -0.00763   2.10670
   A26        2.08540  -0.00009   0.00012   0.00752   0.00707   2.09247
   A27        2.08143  -0.00050  -0.00005  -0.00414  -0.00472   2.07671
   A28        2.10437   0.00141  -0.00016  -0.01318  -0.01672   2.08764
   A29        2.08490  -0.00070  -0.00008  -0.01251  -0.01618   2.06872
   A30        2.05827  -0.00089  -0.00007  -0.01185  -0.01546   2.04281
    D1        1.50227  -0.00097   0.00072  -0.00855  -0.00771   1.49456
    D2       -2.72182  -0.00070   0.00057  -0.01999  -0.01928  -2.74111
    D3       -0.60309  -0.00093   0.00076  -0.00580  -0.00491  -0.60801
    D4       -1.63606   0.00088  -0.00042   0.04046   0.03990  -1.59615
    D5        0.42303   0.00115  -0.00057   0.02902   0.02833   0.45136
    D6        2.54176   0.00092  -0.00037   0.04321   0.04270   2.58446
    D7        3.03230   0.00060  -0.00105  -0.03065  -0.03121   3.00108
    D8        0.18021   0.00147   0.00043   0.12013   0.12045   0.30066
    D9       -0.11252  -0.00123   0.00006  -0.07914  -0.07897  -0.19149
   D10       -2.96461  -0.00036   0.00154   0.07164   0.07269  -2.89192
   D11        2.64646  -0.00055  -0.00064  -0.11502  -0.11546   2.53100
   D12       -1.52940  -0.00099  -0.00057  -0.11408  -0.11444  -1.64384
   D13        0.54517  -0.00098  -0.00064  -0.12076  -0.12126   0.42391
   D14       -0.57622   0.00078  -0.00156  -0.07263  -0.07437  -0.65058
   D15        1.53111   0.00033  -0.00150  -0.07169  -0.07334   1.45777
   D16       -2.67751   0.00035  -0.00157  -0.07837  -0.08016  -2.75767
   D17        3.06846   0.00072  -0.00061   0.01205   0.01182   3.08028
   D18       -0.14187   0.00020  -0.00110  -0.04939  -0.05033  -0.19220
   D19        0.00890  -0.00054   0.00033  -0.02902  -0.02885  -0.01994
   D20        3.08175  -0.00106  -0.00015  -0.09046  -0.09099   2.99076
   D21       -1.02731  -0.00014  -0.00019  -0.02386  -0.02395  -1.05127
   D22        2.18287   0.00036   0.00029   0.03699   0.03718   2.22005
   D23       -3.12144  -0.00016  -0.00020  -0.02385  -0.02395   3.13779
   D24        0.08874   0.00034   0.00028   0.03700   0.03719   0.12593
   D25        1.06555  -0.00031  -0.00023  -0.02723  -0.02736   1.03819
   D26       -2.00745   0.00019   0.00025   0.03363   0.03377  -1.97368
   D27       -1.55814  -0.00071  -0.00027  -0.04718  -0.04772  -1.60586
   D28        1.29825  -0.00154  -0.00174  -0.19582  -0.19730   1.10096
   D29        2.63031   0.00038  -0.00025  -0.03503  -0.03553   2.59478
   D30       -0.79648  -0.00046  -0.00171  -0.18367  -0.18511  -0.98159
   D31        0.58265  -0.00015  -0.00014  -0.02794  -0.02835   0.55431
   D32       -2.84413  -0.00098  -0.00161  -0.17657  -0.17793  -3.02206
         Item               Value     Threshold  Converged?
 Maximum Force            0.004249     0.000450     NO 
 RMS     Force            0.000978     0.000300     NO 
 Maximum Displacement     0.351344     0.001800     NO 
 RMS     Displacement     0.104890     0.001200     NO 
 Predicted change in Energy=-7.991864D-04
 GradGradGradGradGradGradGradGradGradGradGradGradGradGradGradGradGradGrad

                          Input orientation:                          
 ---------------------------------------------------------------------
 Center     Atomic      Atomic             Coordinates (Angstroms)
 Number     Number       Type             X           Y           Z
 ---------------------------------------------------------------------
      1          6           0       -3.811020    3.493380   -2.512149
      2          6           0       -1.941717    1.814468   -0.374736
      3          6           0       -4.753474    3.157873   -3.665140
      4          6           0        0.400843    1.303325    0.087112
      5          6           0       -3.063715    2.870057   -0.284449
      6          7           0       -0.725558    2.226381    0.049008
      7          7           0       -4.003930    2.758658   -1.367845
      8          8           0       -2.981977    4.389969   -2.585362
      9          8           0       -2.178802    0.682224   -0.764662
     10          1           0       -5.687905    3.726078   -3.564110
     11          1           0       -4.275383    3.469155   -4.594779
     12          1           0       -5.014164    2.094796   -3.713071
     13          1           0        0.189802    0.459232    0.752530
     14          1           0        1.283705    1.833444    0.453309
     15          1           0        0.616894    0.895206   -0.906913
     16          1           0       -3.578747    2.718910    0.673875
     17          1           0       -2.676482    3.891712   -0.300027
     18          1           0       -0.563102    3.201379    0.234037
     19          1           0       -4.533662    1.904299   -1.428390
 ---------------------------------------------------------------------
                    Distance matrix (angstroms):
                    1          2          3          4          5
     1  C    0.000000
     2  C    3.298723   0.000000
     3  C    1.526490   4.531828   0.000000
     4  C    5.412235   2.441753   6.639708   0.000000
     5  C    2.430975   1.543146   3.790407   3.820455   0.000000
     6  N    4.205340   1.352137   5.557578   1.456799   2.447957
     7  N    1.373485   2.475981   2.449235   4.861782   1.438805
     8  O    1.223333   3.549960   2.412920   5.302166   2.758806
     9  O    3.690588   1.220748   4.601146   2.786728   2.408379
    10  H    2.164133   5.278285   1.098283   7.501601   4.286645
    11  H    2.133910   5.098309   1.090732   6.962615   4.517300
    12  H    2.201320   4.545657   1.095623   6.662591   4.020041
    13  H    5.989220   2.766002   7.157824   1.095360   4.180046
    14  H    6.124177   3.330070   7.427197   1.092964   4.529781
    15  H    5.379007   2.770334   6.447351   1.096049   4.223078
    16  H    3.287020   2.144170   4.516604   4.264423   1.098402
    17  H    2.517802   2.204632   4.021989   4.039747   1.092690
    18  H    4.263305   2.048098   5.724045   2.133866   2.575203
    19  H    2.054732   2.799363   2.573483   5.196851   2.098103
                    6          7          8          9         10
     6  N    0.000000
     7  N    3.610888   0.000000
     8  O    4.088085   2.277699   0.000000
     9  O    2.271210   2.829576   4.208018   0.000000
    10  H    6.318908   2.931767   2.953091   5.423630   0.000000
    11  H    5.975826   3.315358   2.560968   5.180003   1.767344
    12  H    5.706373   2.638441   3.266395   4.327558   1.771214
    13  H    2.110840   5.231706   6.054123   2.821681   7.990814
    14  H    2.086863   5.668483   5.827983   3.846779   8.265898
    15  H    2.118488   5.003692   5.289843   2.807404   7.404393
    16  H    2.962048   2.085900   3.710956   2.859602   4.839778
    17  H    2.588678   2.046012   2.358886   3.280912   4.444136
    18  H    1.005608   3.821168   3.900348   3.155000   6.400378
    19  H    4.097328   1.007081   3.150376   2.734843   3.035203
                   11         12         13         14         15
    11  H    0.000000
    12  H    1.792224   0.000000
    13  H    7.588889   7.049676   0.000000
    14  H    7.685194   7.555804   1.781745   0.000000
    15  H    6.645295   6.404870   1.768116   1.781889   0.000000
    16  H    5.367204   4.657814   4.394803   4.947336   4.840268
    17  H    4.602167   4.510270   4.594059   4.526263   4.493739
    18  H    6.096737   6.051128   2.890514   2.308683   2.830652
    19  H    3.541398   2.342422   5.399606   6.114538   5.274319
                   16         17         18         19
    16  H    0.000000
    17  H    1.771448   0.000000
    18  H    3.085506   2.286517   0.000000
    19  H    2.448463   2.944849   4.495713   0.000000
 Stoichiometry    C5H10N2O2
 Framework group  C1[X(C5H10N2O2)]
 Deg. of freedom    51
 Full point group                 C1      NOp   1
 Largest Abelian subgroup         C1      NOp   1
 Largest concise Abelian subgroup C1      NOp   1
                         Standard orientation:                         
 ---------------------------------------------------------------------
 Center     Atomic      Atomic             Coordinates (Angstroms)
 Number     Number       Type             X           Y           Z
 ---------------------------------------------------------------------
      1          6           0       -2.010550    0.293730   -0.085270
      2          6           0        1.208453   -0.362130    0.213792
      3          6           0       -3.225880   -0.376277   -0.721066
      4          6           0        3.371465    0.369316   -0.651383
      5          6           0        0.040968   -0.049010    1.173080
      6          7           0        2.178101    0.578559    0.157544
      7          7           0       -1.218486   -0.533015    0.673406
      8          8           0       -1.790718    1.491787   -0.198738
      9          8           0        1.245225   -1.414874   -0.403139
     10          1           0       -4.064941   -0.382766   -0.012434
     11          1           0       -3.526597    0.217668   -1.585065
     12          1           0       -3.037679   -1.412465   -1.023201
     13          1           0        3.919009   -0.517675   -0.314848
     14          1           0        4.020678    1.243974   -0.561572
     15          1           0        3.117575    0.220729   -1.707218
     16          1           0        0.270109   -0.528063    2.134584
     17          1           0       -0.075554    1.022736    1.351278
     18          1           0        2.030145    1.476915    0.584524
     19          1           0       -1.312843   -1.528933    0.557405
 ---------------------------------------------------------------------
 Rotational constants (GHZ):      3.5023781      0.8028817      0.7555493
 Standard basis: 6-31G(d) (6D, 7F)
 There are   155 symmetry adapted basis functions of A   symmetry.
 Integral buffers will be    131072 words long.
 Raffenetti 2 integral format.
 Two-electron integral symmetry is turned on.
   155 basis functions,   292 primitive gaussians,   155 cartesian basis functions
    35 alpha electrons       35 beta electrons
       nuclear repulsion energy       456.3645441961 Hartrees.
 NAtoms=   19 NActive=   19 NUniq=   19 SFac= 1.00D+00 NAtFMM=   60 NAOKFM=F Big=F
 One-electron integrals computed using PRISM.
 NBasis=   155 RedAO= T  NBF=   155
 NBsUse=   155 1.00D-06 NBFU=   155
 Initial guess read from the read-write file.
 B after Tr=     0.000000    0.000000    0.000000
         Rot=    1.000000    0.000000    0.000000    0.000000 Ang=   0.00 deg.
 Initial guess orbital symmetries:
       Occupied  (A) (A) (A) (A) (A) (A) (A) (A) (A) (A) (A) (A)
                 (A) (A) (A) (A) (A) (A) (A) (A) (A) (A) (A) (A)
                 (A) (A) (A) (A) (A) (A) (A) (A) (A) (A) (A)
       Virtual   (A) (A) (A) (A) (A) (A) (A) (A) (A) (A) (A) (A)
                 (A) (A) (A) (A) (A) (A) (A) (A) (A) (A) (A) (A)
                 (A) (A) (A) (A) (A) (A) (A) (A) (A) (A) (A) (A)
                 (A) (A) (A) (A) (A) (A) (A) (A) (A) (A) (A) (A)
                 (A) (A) (A) (A) (A) (A) (A) (A) (A) (A) (A) (A)
                 (A) (A) (A) (A) (A) (A) (A) (A) (A) (A) (A) (A)
                 (A) (A) (A) (A) (A) (A) (A) (A) (A) (A) (A) (A)
                 (A) (A) (A) (A) (A) (A) (A) (A) (A) (A) (A) (A)
                 (A) (A) (A) (A) (A) (A) (A) (A) (A) (A) (A) (A)
                 (A) (A) (A) (A) (A) (A) (A) (A) (A) (A) (A) (A)
 Harris functional with IExCor=  402 diagonalized for initial guess.
 ExpMin= 1.61D-01 ExpMax= 5.48D+03 ExpMxC= 8.25D+02 IAcc=3 IRadAn=         5 AccDes= 0.00D+00
 HarFok:  IExCor=  402 AccDes= 0.00D+00 IRadAn=         5 IDoV= 1
 ScaDFX=  1.000000  1.000000  1.000000  1.000000
 FoFCou: FMM=F IPFlag=           0 FMFlag=      100000 FMFlg1=           0
         NFxFlg=           0 DoJE=T BraDBF=F KetDBF=T FulRan=T
         Omega=  0.000000  0.000000  1.000000  0.000000  0.000000 ICntrl=     500 IOpCl=  0
         NMat0=    1 NMatS0=    1 NMatT0=    0 NMatD0=    1 NMtDS0=    0 NMtDT0=    0
         I1Cent=           4 NGrid=           0.
 Petite list used in FoFCou.
[...]
 966,-0.02568674,0.01765993,-0.01305280,0.00001488,0.00000493,0.0001095
 9,0.55862612,0.00105609,-0.00148527,0.00042994,0.01387428,0.01773279,0
 .01688805,-0.00018399,0.00011278,-0.00009125,0.05431253,0.54088681,-0.
 00041206,-0.00000987,-0.00013210,-0.01400277,0.01997570,-0.01048724,0.
 00006147,0.00006272,-0.00005185,0.00048461,0.03559315,0.58443697,-0.02
 848380,0.00482194,-0.02210066,-0.11653282,0.03997721,-0.01336840,0.003
 54346,0.00384484,-0.00299632,0.00135111,-0.00141345,-0.00365905,0.5235
 2890,0.01205196,0.01755975,0.01426718,0.03389299,-0.12763162,0.0174395
 8,0.00352100,-0.00283037,0.00000315,-0.00226002,0.00120713,-0.00290811
 ,0.03400575,0.53572789,-0.02025810,0.00837199,-0.01425176,-0.01492300,
 0.02240210,-0.09409683,-0.00307943,0.00026888,0.00597990,-0.00387709,-
 0.00221997,0.00167602,-0.01340030,0.02393292,0.54574598,0.00254883,-0.
 00478256,0.00086914,-0.22486495,0.00862107,-0.14522935,-0.00043272,0.0
 0035904,-0.00018732,-0.13540173,0.05444388,-0.04896450,-0.01802800,0.0
 0487579,-0.01939522,0.46292732,-0.00000211,0.00336633,0.00085912,-0.00
 744375,-0.13971567,-0.03045228,0.00044749,-0.00066228,0.00021930,0.061
 27639,-0.17495952,0.02026608,0.02347795,0.00722594,0.01912143,-0.03410
 473,0.75753146,0.00208583,-0.00303685,0.00091495,-0.14934308,-0.017364
 55,-0.17015023,-0.00016467,0.00014706,-0.00018761,-0.04720946,0.014689
 11,-0.09311522,-0.01465962,0.00395610,-0.00364846,0.31959503,0.1498807
 4,0.35901124,-0.20199512,0.08994210,-0.10144105,-0.02381898,0.00260143
 ,-0.01727390,-0.01868100,0.01643655,-0.02012117,0.00089661,-0.00158336
 ,-0.00036442,-0.15120579,-0.01996846,-0.07755185,-0.00303589,0.0051576
 3,-0.00200324,0.44990435,0.09739447,-0.20622315,0.03945420,0.01947706,
 0.00889501,0.01861119,-0.00285196,0.01193219,-0.00212061,0.00051067,0.
 00188933,0.00068013,-0.02902188,-0.12616967,-0.03992649,0.00735104,-0.
 00659103,0.00404904,-0.11268893,0.82975640,-0.09954426,0.03338172,-0.1
 2210135,-0.01297204,0.00485150,-0.01116131,-0.02503829,0.01360549,-0.0
 0580798,0.00016851,-0.00102596,0.00072581,-0.07985584,-0.03254545,-0.1
 3572688,-0.00144483,0.00226140,0.00043201,0.28833562,0.10399050,0.3225
 8251,-0.10179075,-0.02192523,-0.02320102,0.00307629,-0.00018593,0.0019
 8302,0.00960661,-0.02752211,-0.01197260,0.00027843,-0.00043289,0.00014
 160,-0.00001282,0.00114905,0.00477068,-0.00078966,0.00013659,-0.000779
 15,0.01467451,0.04474740,0.00561287,0.07536156,-0.02794209,-0.62945437
 ,-0.16274422,-0.00333861,-0.00098120,-0.00312029,-0.01129169,-0.026859
 23,-0.02004937,-0.00042407,0.00082904,-0.00012680,-0.01053963,-0.00223
 201,-0.00775841,0.00253130,-0.00054771,0.00186981,0.03639069,-0.092514
 87,0.00054421,0.00339926,0.74762895,-0.02473459,-0.15783953,-0.1405687
 7,0.00117983,-0.00055112,0.00140756,-0.00783704,-0.03328425,0.00082288
 ,0.00014384,-0.00013390,0.00005260,0.00179232,0.00177104,-0.00359261,-
 0.00016934,-0.00008150,0.00005030,0.00348335,0.00735793,0.02648888,0.0
 3295949,0.18410883,0.10977936,0.00477035,-0.00167403,0.00325894,-0.117
 57727,-0.09189180,-0.05729556,-0.00005649,-0.00017434,-0.00017309,0.00
 118857,-0.00286361,0.00244954,0.01498334,0.01276634,-0.00218073,-0.008
 54870,-0.04873111,-0.03418080,-0.00456282,0.00822757,-0.00379857,-0.00
 183782,0.00350406,-0.00032347,0.11710619,-0.00129416,-0.00037266,-0.00
 121372,-0.08453265,-0.57203890,-0.19524926,0.00041590,-0.00048315,0.00
 019045,0.00423656,-0.00917669,0.00179809,0.00028962,-0.04750234,-0.017
 37545,-0.03991996,-0.01923230,-0.04205483,-0.00271287,-0.00146454,-0.0
 0326428,0.00211884,0.00033231,0.00190014,0.11797234,0.64622549,0.00335
 595,-0.00152312,0.00259735,-0.05542149,-0.20124627,-0.17243526,-0.0000
 2267,-0.00029089,0.00000868,0.00425775,-0.00398291,-0.00025319,-0.0053
 5979,-0.00720681,0.01544256,-0.03193774,-0.04924399,-0.02041275,-0.006
 58474,0.00565498,-0.00126069,-0.00067681,0.00302948,-0.00012553,0.0966
 3986,0.25173697,0.17829974,-0.02248992,0.00635279,0.00907037,0.0001160
 9,-0.00033465,-0.00006586,-0.27298076,0.04516428,0.09220412,0.00001134
 ,-0.00007251,0.00002057,0.00028491,0.00070039,-0.00080699,-0.00018863,
 0.00015971,-0.00011530,-0.00122755,-0.00217595,-0.00253176,0.00374762,
 0.00016558,-0.00122047,-0.00006342,0.00012832,-0.00007271,0.29514541,-
 0.00963672,0.00124393,0.00640971,0.00001154,-0.00014004,-0.00011934,0.
 04551523,-0.05796691,-0.02020425,-0.00000118,-0.00000919,-0.00000150,-
 0.00016566,0.00027451,0.00000358,-0.00001985,0.00004564,0.00001541,-0.
 00015041,-0.00020763,-0.00034182,0.00094016,-0.00010331,-0.00136966,-0
 .00000371,0.00006821,0.00007708,-0.05032895,0.05703971,-0.02457424,0.0
 0483978,0.00953331,0.00002108,-0.00032104,-0.00019702,0.09084208,-0.02
 040164,-0.08038320,-0.00000982,-0.00003630,0.00000793,0.00023905,0.000
 73809,-0.00114316,-0.00011850,0.00013388,-0.00003766,-0.00130042,-0.00
 108912,-0.00267722,0.00247520,0.00102343,-0.00037576,-0.00001003,0.000
 13667,0.00001243,-0.09783146,0.02186462,0.08784078,0.00160680,0.014363
 41,-0.02437234,-0.00006890,-0.00038171,-0.00003355,-0.04533635,-0.0126
 7520,0.02024712,0.00002212,-0.00003989,-0.00002232,-0.00130646,0.00027
 938,0.00074407,-0.00013351,0.00015748,-0.00008678,-0.00283920,-0.00190
 492,-0.00134944,0.00014965,0.00014509,0.00315397,-0.00006181,0.0001301
 6,0.00002367,-0.00176955,-0.01637371,0.02705602,0.05019342,0.00344842,
 0.00548068,-0.01085206,-0.00011176,-0.00017508,-0.00002869,-0.01283709
 ,-0.11637059,0.11598605,-0.00000487,-0.00000121,-0.00000621,-0.0002388
 8,0.00027527,-0.00003158,0.00001682,0.00005099,0.00000039,-0.00052157,
 -0.00008197,-0.00013332,-0.00090211,-0.00033538,0.00087803,0.00007172,
 0.00009211,0.00001513,0.00032850,0.00321818,-0.00643553,0.01469893,0.1
 2145541,0.00242494,0.01265644,-0.01879958,0.00003647,-0.00032933,0.000
 02341,0.02166184,0.11603316,-0.24961153,0.00003514,-0.00005810,-0.0000
 1082,-0.00065623,0.00036318,0.00044720,-0.00016527,0.00014299,-0.00009
 811,-0.00171403,-0.00216506,-0.00118797,-0.00061229,-0.00129393,0.0034
 5043,-0.00008757,0.00011088,-0.00001318,0.00092488,0.00589278,-0.01008
 806,-0.02125884,-0.12769485,0.26836647,0.00603113,-0.02347267,0.002147
 18,0.00001184,-0.00009942,-0.00005459,-0.05384507,0.02686450,0.0031967
 6,-0.00000659,0.00002166,-0.00000573,0.00032528,-0.00001985,0.00037038
 ,0.00007440,0.00000188,0.00007405,-0.00041783,0.00142344,0.00033218,-0
 .00338023,-0.00337268,-0.00585478,0.00000505,0.00012502,0.00011847,-0.
 00026456,0.03022528,0.00363747,-0.00084974,-0.00337768,-0.00074183,0.0
 5305300,0.00579740,-0.01158413,0.00277661,0.00004119,-0.00033772,-0.00
 006457,0.02393543,-0.30622053,-0.04583029,0.00001098,-0.00002585,0.000
 00055,-0.00031962,0.00041588,-0.00012072,-0.00002503,0.00008435,0.0000
 0511,0.00032054,0.00146611,0.00073143,-0.00318387,0.00081241,-0.003087
 33,-0.00001154,0.00025855,0.00008219,0.00024789,-0.00381904,-0.0002520
 4,0.00168197,-0.01379922,-0.00360077,-0.02823550,0.33163116,0.00959415
 ,-0.02109094,-0.00146948,-0.00001879,-0.00017906,-0.00001314,0.0024507
 4,-0.04344257,-0.05843086,-0.00000844,0.00000924,0.00000268,0.00029418
 ,0.00012404,0.00013581,0.00006721,0.00002702,0.00004576,0.00005190,0.0
 0163087,0.00007634,-0.00580599,-0.00324293,-0.00281607,0.00008368,0.00
 019344,0.00001623,0.00003690,-0.01170801,-0.00273619,-0.00348121,0.028
 17646,0.00782813,-0.00181739,0.04953016,0.05758940,-0.00023071,0.00020
 363,-0.00015301,0.00190473,0.00387685,0.00110180,0.00001684,-0.0000017
 3,0.00001610,-0.07524521,-0.07534186,-0.03782558,0.00011961,-0.0003800
 5,-0.00008647,0.00548049,0.02346960,0.01102789,0.00005169,-0.00040967,
 -0.00003676,0.00010374,-0.00018411,0.00004972,-0.00156928,-0.00221009,
 -0.00047231,0.00000764,0.00000163,0.00000267,0.00000623,-0.00000408,0.
 00000920,-0.00000411,0.00000265,-0.00000724,0.07813891,0.00008151,-0.0
 0005186,0.00004796,-0.00277142,-0.00365408,-0.00364007,-0.00000034,-0.
 00000435,-0.00000052,-0.06501407,-0.24569639,-0.10235178,0.00001706,-0
 .00020095,-0.00006471,-0.00253217,-0.02946536,-0.00940309,-0.00010192,
 0.00022209,-0.00001843,-0.00001796,0.00007505,0.00000828,-0.00180457,0
 .00350303,-0.00014925,-0.00000128,0.00000113,0.00000074,0.00000086,0.0
 0000014,-0.00000038,0.00000290,0.00000190,0.00000142,0.06931066,0.2738
 9832,-0.00018400,0.00014743,-0.00009182,-0.00059396,0.00177677,0.00173
 438,0.00001644,-0.00000165,0.00000954,-0.03519004,-0.11077550,-0.10942
 362,0.00001489,-0.00038780,0.00001960,0.00439503,0.01181024,0.00590186
 ,0.00004161,-0.00026922,-0.00006604,0.00009200,-0.00012709,0.00002782,
 -0.00036872,-0.00047848,-0.00210432,0.00000956,-0.00000284,0.00000295,
 0.00000282,0.00000154,0.00000534,-0.00000717,0.00000122,0.00000007,0.0
 4103277,0.11379430,0.11204009,0.00018266,-0.00033549,0.00008727,0.0022
 6218,0.00420239,-0.00032430,-0.00002559,0.00003667,-0.00003285,-0.0531
 1007,-0.00391030,0.02662784,-0.00075674,-0.00038302,0.00019458,-0.0043
 6746,0.00581265,-0.02831100,-0.00045377,0.00041768,-0.00006298,-0.0000
 8635,0.00016737,-0.00001544,-0.00036300,-0.00113033,-0.00035492,-0.000
 01449,-0.00000002,-0.00000865,-0.00001542,-0.00000215,-0.00001523,0.00
 000479,-0.00000610,0.00000089,0.00094261,0.00157763,-0.00996975,0.0566
 1519,-0.00017954,0.00037369,-0.00008663,-0.00410356,-0.00605079,-0.002
 06755,0.00002151,-0.00003638,0.00003352,-0.00481669,-0.05193952,0.0198
 4367,0.00100320,0.00027396,-0.00050723,0.01017577,-0.00687596,0.031157
 40,0.00039144,-0.00039123,0.00002725,0.00007272,-0.00018338,0.00000796
 ,-0.00086234,0.00297942,0.00119215,0.00001255,0.00000216,0.00000603,0.
 00001480,0.00000098,0.00001634,-0.00000329,0.00000374,-0.00000405,0.00
 453314,0.00640399,-0.02763188,-0.00382394,0.05520523,0.00027924,-0.000
 39343,0.00012840,0.00312517,0.00183943,0.00097218,-0.00003311,0.000026
 13,-0.00002675,0.02293704,0.02247759,-0.30740498,-0.00006208,-0.000016
 35,-0.00014202,-0.00863748,0.00583296,-0.00537075,-0.00043588,0.000362
 18,-0.00012915,-0.00011129,0.00022343,-0.00001051,-0.00070693,-0.00040
 633,-0.00040844,-0.00001863,0.00000116,-0.00000775,-0.00000997,-0.0000
 0251,-0.00001379,0.00000813,-0.00000341,0.00000054,0.00239062,0.001687
 85,-0.01219731,-0.01991746,-0.03100380,0.33236534,0.00036262,-0.000533
 83,0.00014462,0.00129039,0.00317257,0.00521314,-0.00005835,0.00003684,
 -0.00002116,-0.27741724,-0.05727042,0.06447065,-0.00003828,-0.00003435
 ,-0.00050305,-0.02272297,0.00500398,-0.00545477,-0.00040366,0.00059669
 ,-0.00039574,-0.00011789,0.00030098,-0.00004530,-0.00050884,-0.0013479
 0,-0.00079311,-0.00002237,-0.00000492,-0.00001329,-0.00001580,0.000003
 10,-0.00002071,0.00000513,-0.00000691,0.00000712,-0.00652229,-0.002055
 79,0.00253610,-0.00116373,-0.00205158,0.00165669,0.30746804,-0.0001634
 8,0.00029892,-0.00001886,-0.00078998,-0.00524889,-0.00476440,0.0000413
 5,-0.00002696,0.00000027,-0.06098952,-0.06425598,0.01453846,-0.0003541
 4,-0.00011031,0.00121728,0.03537335,0.00255420,0.00038189,0.00016683,-
 0.00041064,0.00021779,0.00005481,-0.00014393,0.00000835,0.00009272,0.0
 0322489,-0.00017767,0.00001705,0.00000150,0.00001154,0.00000672,0.0000
 0145,0.00000889,-0.00000494,0.00000294,0.00000006,-0.02559369,-0.00342
 329,0.01034730,-0.00216824,-0.00001401,-0.00067011,0.05427292,0.067004
 92,0.00008708,-0.00014153,0.00002306,-0.00136092,0.00132929,0.00113161
 ,-0.00002363,0.00001635,-0.00000345,0.06698646,0.01567341,-0.07080083,
 0.00002437,-0.00014313,-0.00047509,-0.01627331,-0.00261787,0.00355741,
 -0.00013967,0.00025521,-0.00016028,-0.00003642,0.00007099,-0.00001823,
 -0.00000898,0.00002806,-0.00050745,-0.00000865,-0.00000135,-0.00000737
 ,-0.00000661,0.00000058,-0.00000572,0.00000111,-0.00000448,0.00000101,
 -0.01507483,-0.00217936,0.00509985,0.03161731,0.00855761,-0.00763617,-
 0.06651324,-0.02061886,0.06973128,0.00231229,-0.00438138,-0.00081877,-
 0.00500794,0.00328568,0.01527858,-0.00095544,-0.00017035,0.00100011,0.
 00004637,-0.00021877,-0.00052027,-0.09720161,0.04289476,0.09354121,0.0
 0011519,0.00072616,-0.00200209,0.00796885,-0.01280319,-0.02891588,-0.0
 0018262,0.00202085,0.00105088,-0.00037336,0.00161630,-0.00145781,-0.00
 026925,0.00005479,-0.00021087,0.00015258,0.00000172,0.00006507,0.00011
 667,0.00004959,0.00004075,0.00014444,-0.00006968,0.00009266,-0.0001199
 7,0.00019379,-0.00003986,0.00002180,-0.00003139,0.00004146,0.10364740,
 0.00117272,0.00069023,0.00122727,0.01078592,-0.01044018,-0.02436592,-0
 .00004294,-0.00022854,-0.00020600,-0.00035827,-0.00029704,0.00101765,0
 .04239266,-0.08361595,-0.08030660,-0.00105701,0.00082330,0.00130050,-0
 .00155609,-0.00406596,-0.00995080,-0.00083431,0.00010830,-0.00075449,0
 .00047032,-0.00360515,0.00325024,0.00003177,0.00005611,0.00001024,0.00
 000253,0.00002457,0.00001363,-0.00002510,0.00000126,-0.00004037,-0.000
 16330,0.00005833,-0.00010791,0.00016777,-0.00022079,0.00001471,-0.0001
 4934,0.00022094,-0.00005979,-0.04105980,0.09100698,0.00315375,-0.00783
 419,0.00085234,-0.00383480,0.00131329,0.00934484,-0.00058616,0.0000691
 8,0.00038654,0.00038415,-0.00036915,0.00026557,0.08846901,-0.07753372,
 -0.21412253,-0.00088097,0.00041258,-0.00007205,-0.00777589,-0.01114877
 ,-0.02233770,0.00080840,0.00371747,0.00188676,0.00078261,0.00256687,-0
 .00061768,-0.00017010,0.00005959,-0.00014683,0.00007550,0.00002961,0.0
 0000789,0.00010987,0.00010871,0.00006176,0.00002460,0.00005887,0.00004
 171,-0.00004753,0.00008811,-0.00007204,-0.00007931,0.00004464,-0.00001
 600,-0.09042306,0.09159098,0.24047524,0.00310496,-0.00860285,0.0004682
 9,0.01436835,0.01129857,-0.00846032,0.00041245,0.00044798,-0.00079712,
 0.00007761,-0.00044658,0.00035333,-0.12963065,-0.09945399,0.06028637,-
 0.00100980,0.00021655,-0.00027993,-0.02208718,-0.01780061,-0.00453683,
 0.00134196,0.00407781,0.00168569,-0.00235728,0.00275596,0.00185168,0.0
 0003710,0.00000097,0.00010341,-0.00024556,0.00005071,-0.00017115,0.000
 07726,0.00009523,0.00015019,0.00009788,0.00002589,0.00008426,0.0000048
 1,-0.00000591,-0.00003875,-0.00014550,0.00017057,-0.00004033,-0.008079
 73,-0.01075433,0.00936803,0.14816196,0.00197787,-0.00045492,0.00094540
 ,-0.01737011,-0.01862883,0.01017707,-0.00025872,-0.00023648,0.00002154
 ,0.00110516,0.00008591,-0.00049239,-0.10363822,-0.17057348,0.07598150,
 0.00110450,0.00145013,-0.00124441,-0.00868389,-0.00492014,-0.00510876,
 -0.00065562,0.00065816,-0.00019076,0.00388026,-0.00199122,-0.00065808,
 -0.00001091,0.00003149,-0.00000214,0.00001257,0.00004654,0.00005540,-0
 .00003678,0.00001574,-0.00000703,-0.00016586,0.00009195,-0.00012501,-0
 .00015874,0.00022769,-0.00008004,0.00009516,-0.00024806,0.00009354,0.0
 0726295,0.00937561,-0.00495852,0.11735381,0.18567699,0.00060729,-0.003
 14778,0.00120484,0.00526101,0.00175534,-0.00184442,0.00064186,0.000218
 55,-0.00097376,-0.00018990,-0.00025734,-0.00014866,0.06416285,0.077031
 97,-0.09474280,-0.00163026,0.00037319,0.00042682,-0.02048840,-0.020513
 59,0.00857493,-0.00000556,0.00152433,-0.00018766,-0.00039452,0.0000423
 9,-0.00024838,0.00009005,-0.00000904,0.00011638,-0.00022764,0.00005587
 ,-0.00016115,0.00002852,0.00001249,0.00008682,0.00007957,-0.00005919,0
 .00005478,0.00001315,0.00003608,-0.00000573,-0.00005862,0.00010300,-0.
 00001888,0.01648530,0.01936501,-0.01210624,-0.06098526,-0.07644573,0.1
 0129691,-0.00013417,0.00040871,-0.00010108,-0.00056701,-0.03026180,-0.
 00029543,0.00008601,-0.00005919,0.00000020,0.00515658,0.01962270,0.011
 25146,-0.00040551,0.00020641,-0.00123821,-0.05367177,-0.03754017,-0.05
 025937,0.00011622,0.00033375,0.00111562,0.00003580,-0.00012220,0.00014
 616,-0.00199867,0.00063204,-0.00849222,0.00002208,0.00000891,0.0000187
 8,0.00001890,0.00000017,0.00002235,0.00000837,0.00001589,0.00000297,-0
 .00318183,0.00319686,-0.00181074,0.00038207,-0.00053215,-0.00051716,-0
 .00011681,-0.00004505,0.00069753,-0.00114571,0.00076119,0.00048429,-0.
 00020239,-0.00006516,-0.00030673,0.05505293,-0.00011567,0.00051680,0.0
 0000742,-0.00222816,-0.00310881,-0.00014500,0.00003730,-0.00004120,0.0
 0000274,-0.00604462,-0.01453859,-0.00799861,0.00098933,0.00038158,0.00
 060333,-0.04052868,-0.39282720,-0.13222274,-0.00005937,-0.00080256,0.0
 0003984,-0.00000581,-0.00028279,-0.00003048,0.00148568,0.00359925,-0.0
 0006875,0.00001447,0.00000245,0.00000841,0.00001013,-0.00000132,0.0000
 1362,-0.00000734,-0.00000469,-0.00000965,0.00281731,-0.00169440,0.0018
 5692,-0.00042946,0.00019118,0.00016642,0.00006007,0.00054627,-0.000245
 23,0.00016625,0.00036350,0.00017357,0.00004852,-0.00002379,0.00043196,
 0.04392686,0.40745398,-0.00023450,0.00043460,0.00003707,0.00685809,-0.
 02299061,-0.00993977,0.00002474,-0.00007588,0.00006816,0.00470687,0.01
 293498,0.00462935,-0.00103938,-0.00003491,0.00032272,-0.05102757,-0.12
 980268,-0.07845987,0.00101552,0.00036061,-0.00022827,0.00017577,-0.000
 12519,-0.00007026,-0.00827437,-0.00076450,0.00167794,0.00002520,0.0000
 0077,0.00001278,0.00001986,0.00000860,0.00001971,-0.00000293,0.0000093
 0,0.00000965,-0.00190595,0.00216335,-0.00096576,0.00047663,0.00038468,
 -0.00007760,-0.00024383,-0.00063111,0.00006818,-0.00001646,-0.00020222
 ,-0.00024672,0.00007126,0.00120018,-0.00080294,0.04903899,0.13748310,0
 .08366973,0.00308254,0.01772428,0.01483699,-0.00339969,-0.00832419,-0.
 00673718,-0.00148386,0.00016617,0.00142025,-0.00017300,0.00044647,-0.0
 0008438,-0.00053413,-0.02384408,-0.00260687,0.00204956,0.00177781,0.00
 206646,-0.04288343,-0.00082264,-0.03508158,-0.00017802,0.00451209,-0.0
 0544482,0.00182524,0.00272689,0.00539894,-0.00008170,-0.00007337,-0.00
 031847,0.00049260,-0.00061989,0.00026326,-0.00094481,-0.00041020,-0.00
 164164,-0.00026137,0.00015583,-0.00019375,0.00008228,-0.00003994,0.000
 13172,0.00010576,-0.00005589,0.00003127,-0.00118995,0.00021560,0.00013
 759,-0.00392623,-0.00174825,-0.00308273,0.00054491,-0.00013682,0.00033
 207,0.04687329,-0.00297820,-0.01568846,-0.00398469,0.00304462,0.004330
 51,0.00300803,-0.00097445,0.00026968,0.00008345,0.00027996,-0.00035854
 ,0.00011906,-0.00512809,-0.00247521,-0.00359186,-0.00188258,-0.0022553
 1,-0.00212606,-0.00338033,-0.41031775,-0.10726230,0.00304700,0.0031939
 7,0.00128245,-0.00045395,-0.00441632,-0.00049047,-0.00039904,0.0002610
 9,-0.00023562,-0.00012860,0.00011844,-0.00016491,-0.00000944,0.0010971
 2,0.00003189,0.00023899,-0.00006525,0.00017167,-0.00003439,0.00005000,
 -0.00005587,-0.00008728,0.00002602,-0.00001343,0.00046173,-0.00025553,
 0.00161087,0.00052170,-0.00058327,-0.00051753,-0.00048776,0.00027036,-
 0.00035305,0.00835011,0.42679844,0.00956292,0.01289118,0.00150288,-0.0
 0384187,-0.00626034,-0.00246221,0.00113061,0.00101169,-0.00199632,-0.0
 0012675,0.00025492,0.00003156,0.00216100,-0.01885099,-0.00782766,0.001
 13525,0.00085739,0.00121235,-0.03573335,-0.10517397,-0.05603564,-0.005
 81790,0.00247625,0.00379881,0.00458869,0.00210290,0.00033193,0.0004602
 9,-0.00056690,0.00027363,-0.00047433,0.00003250,-0.00015866,-0.0015397
 2,-0.00029416,-0.00038844,-0.00017279,0.00010401,-0.00008914,0.0000424
 2,-0.00004965,0.00003655,0.00011382,0.00000152,0.00003705,-0.00319095,
 -0.00179613,-0.00358485,0.00088716,0.00083826,-0.00052086,0.00024260,-
 0.00006686,0.00027590,0.03057288,0.11248838,0.06556313\\0.00000186,-0.
 00001669,-0.00000637,0.00000275,0.00001308,0.00000125,0.00000815,0.000
 00250,0.00000792,0.00000371,0.00000029,-0.00000075,0.00001027,-0.00000
 892,0.00000702,-0.00000179,0.00000083,-0.00000304,-0.00000965,-0.00000
 182,-0.00000672,-0.00000068,0.00001213,0.00000362,-0.00000336,-0.00000
 881,-0.00000250,-0.00000124,0.00000120,-0.00000172,-0.00000127,0.00000
 145,0.00000080,-0.00000308,-0.00000053,-0.00000192,-0.00000150,0.00000
 168,0.00000080,0.00000044,-0.00000129,0.00000060,0.00000009,-0.0000003
 1,0.00000133,-0.00000339,0.00000452,-0.00000438,-0.00000397,0.00000192
 ,0.00000059,-0.00000042,-0.00000210,0.00000104,0.00000309,0.00000085,0
 .00000243\\\@


 THE FIRST MORNING OF CREATION WROTE WHAT THE LAST DAWN OF
 RECKONING SHALL READ. -- OMAR KHAYYAM
 Job cpu time:  0 days  0 hours 30 minutes  0.2 seconds.
 File lengths (MBytes):  RWF=     66 Int=      0 D2E=      0 Chk=      3 Scr=      1
 Normal termination of Gaussian 09 at Fri Feb 16 21:38:01 2018.
