 Entering Gaussian System, Link 0=g09
 Initial command:
 /home/fb_chem/chemsoft/lx24-amd64/Gaussian_09_C.01_NBO_3.1_64_istanbul-64/g09/l1.exe /local/2659151.1.parallel/Gau-16434.inp -scrdir=/local/2659151.1.parallel/
 Entering Link 1 = /home/fb_chem/chemsoft/lx24-amd64/Gaussian_09_C.01_NBO_3.1_64_istanbul-64/g09/l1.exe PID=     16436.
  
 Copyright (c) 1988,1990,1992,1993,1995,1998,2003,2009,2011,
            Gaussian, Inc.  All Rights Reserved.
  
 This is part of the Gaussian(R) 09 program.  It is based on
 the Gaussian(R) 03 system (copyright 2003, Gaussian, Inc.),
 the Gaussian(R) 98 system (copyright 1998, Gaussian, Inc.),
 the Gaussian(R) 94 system (copyright 1995, Gaussian, Inc.),
 the Gaussian 92(TM) system (copyright 1992, Gaussian, Inc.),
 the Gaussian 90(TM) system (copyright 1990, Gaussian, Inc.),
 the Gaussian 88(TM) system (copyright 1988, Gaussian, Inc.),
 the Gaussian 86(TM) system (copyright 1986, Carnegie Mellon
 University), and the Gaussian 82(TM) system (copyright 1983,
 Carnegie Mellon University). Gaussian is a federally registered
 trademark of Gaussian, Inc.
  
 This software contains proprietary and confidential information,
 including trade secrets, belonging to Gaussian, Inc.
  
 This software is provided under written license and may be
 used, copied, transmitted, or stored only in accord with that
 written license.
  
 The following legend is applicable only to US Government
 contracts under FAR:
  
                    RESTRICTED RIGHTS LEGEND
  
 Use, reproduction and disclosure by the US Government is
 subject to restrictions as set forth in subparagraphs (a)
 and (c) of the Commercial Computer Software - Restricted
 Rights clause in FAR 52.227-19.
  
 Gaussian, Inc.
 340 Quinnipiac St., Bldg. 40, Wallingford CT 06492
  
  
 ---------------------------------------------------------------
 Warning -- This program may not be used in any manner that
 competes with the business of Gaussian, Inc. or will provide
 assistance to any competitor of Gaussian, Inc.  The licensee
 of this program is prohibited from giving any competitor of
 Gaussian, Inc. access to this program.  By using this program,
 the user acknowledges that Gaussian, Inc. is engaged in the
 business of creating and licensing software in the field of
 computational chemistry and represents and warrants to the
 licensee that it is not a competitor of Gaussian, Inc. and that
 it will not use this program in any manner prohibited above.
 ---------------------------------------------------------------
  

 Cite this work as:
 Gaussian 09, Revision C.01,
 M. J. Frisch, G. W. Trucks, H. B. Schlegel, G. E. Scuseria, 
 M. A. Robb, J. R. Cheeseman, G. Scalmani, V. Barone, B. Mennucci, 
 G. A. Petersson, H. Nakatsuji, M. Caricato, X. Li, H. P. Hratchian, 
 A. F. Izmaylov, J. Bloino, G. Zheng, J. L. Sonnenberg, M. Hada, 
 M. Ehara, K. Toyota, R. Fukuda, J. Hasegawa, M. Ishida, T. Nakajima, 
 Y. Honda, O. Kitao, H. Nakai, T. Vreven, J. A. Montgomery, Jr., 
 J. E. Peralta, F. Ogliaro, M. Bearpark, J. J. Heyd, E. Brothers, 
 K. N. Kudin, V. N. Staroverov, T. Keith, R. Kobayashi, J. Normand, 
 K. Raghavachari, A. Rendell, J. C. Burant, S. S. Iyengar, J. Tomasi, 
 M. Cossi, N. Rega, J. M. Millam, M. Klene, J. E. Knox, J. B. Cross, 
 V. Bakken, C. Adamo, J. Jaramillo, R. Gomperts, R. E. Stratmann, 
 O. Yazyev, A. J. Austin, R. Cammi, C. Pomelli, J. W. Ochterski, 
 R. L. Martin, K. Morokuma, V. G. Zakrzewski, G. A. Voth, 
 P. Salvador, J. J. Dannenberg, S. Dapprich, A. D. Daniels, 
 O. Farkas, J. B. Foresman, J. V. Ortiz, J. Cioslowski, 
 and D. J. Fox, Gaussian, Inc., Wallingford CT, 2010.
 
 ******************************************
 Gaussian 09:  AM64L-G09RevC.01 23-Sep-2011
                24-Aug-2018 
 ******************************************
 %nprocs=2
 Will use up to    2 processors via shared memory.
 %chk=frag44-conf0.chk
 ----------------------------------------------------------------------
 #HF/6-31G* Geom=AllCheck Guess=Read Pop=(MK,ReadRadii) Integral=(Grid=
 UltraFine) iop(6/33=2)
 ----------------------------------------------------------------------
 1/29=7,38=1/1;
 2/12=2,40=1/2;
 3/5=1,6=6,7=1,11=9,14=-4,16=1,25=1,30=1,75=-5,116=-2/1,2,3;
 4/5=1/1;
 5/5=2,38=6/2;
 6/7=2,8=2,9=2,10=2,15=8,20=101,28=1,33=2/1,2;
 99/5=1,9=1/99;
 Structure from the checkpoint file:  frag44-conf0.chk
 -----------------------------
 Optimization for frag44-conf0
 -----------------------------
 Charge =  1 Multiplicity = 1
 Redundant internal coordinates found in file.
 N,0,1.2373470661,0.4345742023,0.1916331676
 C,0,2.4623312055,0.0237805945,-0.1239252378
 N,0,3.100223174,-0.8356861464,0.6655602826
 H,0,4.082623245,-1.0241747344,0.5158475746
 H,0,2.6625014223,-1.2750537918,1.4669269264
 C,0,3.1101169527,0.518837647,-1.3434240181
 C,0,2.8921660892,1.8432267078,-1.7675408444
 C,0,3.5127305213,2.3084562108,-2.9224347939
 C,0,4.3417676127,1.4600508535,-3.6623735597
 C,0,4.5571110384,0.1426595051,-3.2467990767
 C,0,3.949118839,-0.3309471747,-2.0886233475
 H,0,0.7849349849,0.1936791736,1.0657754912
 H,0,0.6919108874,0.9569483745,-0.4811769603
 H,0,2.2838867062,2.519884679,-1.1739055921
 H,0,3.3584480415,3.3346607951,-3.2397125525
 H,0,4.8211245998,1.8263798702,-4.5649507342
 H,0,5.190027289,-0.5177969218,-3.8305607956
 H,0,4.0860847857,-1.3678193549,-1.7946726655
 Recover connectivity data from disk.
                          Input orientation:                          
 ---------------------------------------------------------------------
 Center     Atomic      Atomic             Coordinates (Angstroms)
 Number     Number       Type             X           Y           Z
 ---------------------------------------------------------------------
      1          7           0        1.237347    0.434574    0.191633
      2          6           0        2.462331    0.023781   -0.123925
      3          7           0        3.100223   -0.835686    0.665560
      4          1           0        4.082623   -1.024175    0.515848
      5          1           0        2.662501   -1.275054    1.466927
      6          6           0        3.110117    0.518838   -1.343424
      7          6           0        2.892166    1.843227   -1.767541
      8          6           0        3.512731    2.308456   -2.922435
      9          6           0        4.341768    1.460051   -3.662374
     10          6           0        4.557111    0.142660   -3.246799
     11          6           0        3.949119   -0.330947   -2.088623
     12          1           0        0.784935    0.193679    1.065775
     13          1           0        0.691911    0.956948   -0.481177
     14          1           0        2.283887    2.519885   -1.173906
     15          1           0        3.358448    3.334661   -3.239713
     16          1           0        4.821125    1.826380   -4.564951
     17          1           0        5.190027   -0.517797   -3.830561
     18          1           0        4.086085   -1.367819   -1.794673
 ---------------------------------------------------------------------
                    Distance matrix (angstroms):
                    1          2          3          4          5
     1  N    0.000000
     2  C    1.330006   0.000000
     3  N    2.304013   1.329991   0.000000
     4  H    3.213823   2.032945   1.011460   0.000000
     5  H    2.565203   2.063456   1.013328   1.727495   0.000000
     6  C    2.422967   1.466931   2.422984   2.604524   3.363997
     7  C    2.925934   2.489300   3.624892   3.853964   4.498689
     8  C    4.287916   3.762278   4.788476   4.822136   5.729828
     9  C    5.053949   4.256262   5.053994   4.867860   6.050657
    10  C    4.788409   3.762257   4.287918   3.967890   5.274341
    11  C    3.624817   2.489259   2.925904   2.698454   3.897263
    12  H    1.013327   2.063471   2.565214   3.558137   2.417303
    13  H    1.011459   2.032934   3.213800   4.051646   3.558113
    14  H    2.703417   2.713823   3.912786   4.318689   4.638847
    15  H    4.968270   4.633906   5.719233   5.798975   6.624671
    16  H    6.116018   5.341908   6.116072   5.872440   7.117731
    17  H    5.719155   4.633873   4.968243   4.513760   5.918209
    18  H    3.912715   2.713765   2.703301   2.335938   3.559948
                    6          7          8          9         10
     6  C    0.000000
     7  C    1.407616   0.000000
     8  C    2.420353   1.391157   0.000000
     9  C    2.789332   2.416311   1.398071   0.000000
    10  C    2.420359   2.802173   2.426235   1.398068   0.000000
    11  C    1.407615   2.438704   2.802165   2.416306   1.391161
    12  H    3.363992   3.897321   5.274369   6.050632   5.729766
    13  H    2.604445   2.698397   3.967787   4.867708   4.821981
    14  H    2.171539   1.086404   2.147583   3.398617   3.887883
    15  H    3.403886   2.146878   1.085156   2.158639   3.409650
    16  H    3.874977   3.398039   2.154565   1.085645   2.154563
    17  H    3.403893   3.887242   3.409652   2.158637   1.085156
    18  H    2.171546   3.425930   3.887877   3.398607   2.147576
                   11         12         13         14         15
    11  C    0.000000
    12  H    4.498614   0.000000
    13  H    3.853824   1.727511   0.000000
    14  H    3.425923   3.560093   2.336029   0.000000
    15  H    3.887233   5.918274   4.513696   2.467002   0.000000
    16  H    3.398036   7.117697   5.872267   4.291586   2.484067
    17  H    2.146884   6.624586   5.798819   4.973025   4.306416
    18  H    1.086403   4.638753   4.318591   4.329840   4.973019
                   16         17         18
    16  H    0.000000
    17  H    2.484066   0.000000
    18  H    4.291577   2.466996   0.000000
 Stoichiometry    C7H9N2(1+)
 Framework group  C1[X(C7H9N2)]
 Deg. of freedom    48
 Full point group                 C1      NOp   1
 Largest Abelian subgroup         C1      NOp   1
 Largest concise Abelian subgroup C1      NOp   1
                         Standard orientation:                         
 ---------------------------------------------------------------------
 Center     Atomic      Atomic             Coordinates (Angstroms)
 Number     Number       Type             X           Y           Z
 ---------------------------------------------------------------------
      1          7           0       -2.309991   -1.055314    0.462057
      2          6           0       -1.645359   -0.000018   -0.000036
      3          7           0       -2.310053    1.055281   -0.461992
      4          1           0       -1.815394    1.785347   -0.957339
      5          1           0       -3.317821    1.140740   -0.399276
      6          6           0       -0.178429   -0.000017   -0.000068
      7          6           0        0.524853   -1.193671   -0.249004
      8          6           0        1.915989   -1.186601   -0.252143
      9          6           0        2.610903    0.000030    0.000054
     10          6           0        1.915934    1.186644    0.252165
     11          6           0        0.524794    1.193657    0.248928
     12          1           0       -3.317769   -1.140772    0.399509
     13          1           0       -1.815225   -1.785336    0.957359
     14          1           0       -0.008911   -2.109203   -0.488107
     15          1           0        2.457938   -2.103183   -0.461270
     16          1           0        3.696549    0.000041    0.000122
     17          1           0        2.457836    2.103256    0.461275
     18          1           0       -0.009009    2.109201    0.487894
 ---------------------------------------------------------------------
 Rotational constants (GHZ):      3.6574013      1.1872996      0.9364137
 Standard basis: 6-31G(d) (6D, 7F)
 There are   153 symmetry adapted basis functions of A   symmetry.
 Integral buffers will be    131072 words long.
 Raffenetti 1 integral format.
 Two-electron integral symmetry is turned on.
   153 basis functions,   288 primitive gaussians,   153 cartesian basis functions
    32 alpha electrons       32 beta electrons
       nuclear repulsion energy       416.9237107357 Hartrees.
 NAtoms=   18 NActive=   18 NUniq=   18 SFac= 1.00D+00 NAtFMM=   60 NAOKFM=F Big=F
 One-electron integrals computed using PRISM.
 NBasis=   153 RedAO= T  NBF=   153
 NBsUse=   153 1.00D-06 NBFU=   153
 Initial guess read from the checkpoint file:  frag44-conf0.chk
 B after Tr=     0.000000    0.000000    0.000000
         Rot=    1.000000    0.000000    0.000000    0.000000 Ang=   0.00 deg.
 Initial guess orbital symmetries:
       Occupied  (A) (A) (A) (A) (A) (A) (A) (A) (A) (A) (A) (A)
                 (A) (A) (A) (A) (A) (A) (A) (A) (A) (A) (A) (A)
                 (A) (A) (A) (A) (A) (A) (A) (A)
       Virtual   (A) (A) (A) (A) (A) (A) (A) (A) (A) (A) (A) (A)
                 (A) (A) (A) (A) (A) (A) (A) (A) (A) (A) (A) (A)
                 (A) (A) (A) (A) (A) (A) (A) (A) (A) (A) (A) (A)
                 (A) (A) (A) (A) (A) (A) (A) (A) (A) (A) (A) (A)
                 (A) (A) (A) (A) (A) (A) (A) (A) (A) (A) (A) (A)
                 (A) (A) (A) (A) (A) (A) (A) (A) (A) (A) (A) (A)
                 (A) (A) (A) (A) (A) (A) (A) (A) (A) (A) (A) (A)
                 (A) (A) (A) (A) (A) (A) (A) (A) (A) (A) (A) (A)
                 (A) (A) (A) (A) (A) (A) (A) (A) (A) (A) (A) (A)
                 (A) (A) (A) (A) (A) (A) (A) (A) (A) (A) (A) (A)
                 (A)
 Requested convergence on RMS density matrix=1.00D-08 within 128 cycles.
 Requested convergence on MAX density matrix=1.00D-06.
 Requested convergence on             energy=1.00D-06.
 No special actions if energy rises.
 SCF Done:  E(RHF) =  -379.031817186     A.U. after   13 cycles
             Convg  =    0.5572D-08             -V/T =  2.0026

 **********************************************************************

            Population analysis using the SCF density.

 **********************************************************************

 Orbital symmetries:
 BldTbl:  Degeneracy threshold= 1.00D-02
       Occupied  (A) (A) (A) (A) (A) (A) (A) (A) (A) (A) (A) (A)
                 (A) (A) (A) (A) (A) (A) (A) (A) (A) (A) (A) (A)
                 (A) (A) (A) (A) (A) (A) (A) (A)
       Virtual   (A) (A) (A) (A) (A) (A) (A) (A) (A) (A) (A) (A)
                 (A) (A) (A) (A) (A) (A) (A) (A) (A) (A) (A) (A)
                 (A) (A) (A) (A) (A) (A) (A) (A) (A) (A) (A) (A)
                 (A) (A) (A) (A) (A) (A) (A) (A) (A) (A) (A) (A)
                 (A) (A) (A) (A) (A) (A) (A) (A) (A) (A) (A) (A)
                 (A) (A) (A) (A) (A) (A) (A) (A) (A) (A) (A) (A)
                 (A) (A) (A) (A) (A) (A) (A) (A) (A) (A) (A) (A)
                 (A) (A) (A) (A) (A) (A) (A) (A) (A) (A) (A) (A)
                 (A) (A) (A) (A) (A) (A) (A) (A) (A) (A) (A) (A)
                 (A) (A) (A) (A) (A) (A) (A) (A) (A) (A) (A) (A)
                 (A)
 The electronic state is 1-A.
 Alpha  occ. eigenvalues --  -15.80007 -15.80004 -11.56899 -11.41833 -11.40648
 Alpha  occ. eigenvalues --  -11.40642 -11.39142 -11.38383 -11.38374  -1.50483
 Alpha  occ. eigenvalues --   -1.38783  -1.30993  -1.19532  -1.17056  -1.07404
 Alpha  occ. eigenvalues --   -0.99267  -0.98743  -0.93199  -0.93050  -0.85900
 Alpha  occ. eigenvalues --   -0.84834  -0.80578  -0.78659  -0.75136  -0.74462
 Alpha  occ. eigenvalues --   -0.73652  -0.65798  -0.65245  -0.64654  -0.61176
 Alpha  occ. eigenvalues --   -0.49456  -0.48663
 Alpha virt. eigenvalues --   -0.07610  -0.01428   0.03805   0.03859   0.08397
 Alpha virt. eigenvalues --    0.08998   0.10791   0.12197   0.16628   0.17169
 Alpha virt. eigenvalues --    0.20177   0.21107   0.22288   0.27548   0.30100
 Alpha virt. eigenvalues --    0.32748   0.33534   0.33650   0.38415   0.43042
 Alpha virt. eigenvalues --    0.50188   0.55681   0.57626   0.58656   0.58853
 Alpha virt. eigenvalues --    0.62571   0.63210   0.64939   0.67285   0.67707
 Alpha virt. eigenvalues --    0.69085   0.69472   0.69765   0.71562   0.72311
 Alpha virt. eigenvalues --    0.75415   0.77810   0.78322   0.78606   0.83258
 Alpha virt. eigenvalues --    0.85442   0.89964   0.91711   0.95432   0.96406
 Alpha virt. eigenvalues --    0.97865   0.97950   0.99867   1.00500   1.02660
 Alpha virt. eigenvalues --    1.04450   1.05324   1.06380   1.07475   1.11116
 Alpha virt. eigenvalues --    1.16439   1.19357   1.23085   1.24540   1.27729
 Alpha virt. eigenvalues --    1.32917   1.33323   1.39684   1.42462   1.48464
 Alpha virt. eigenvalues --    1.53908   1.54407   1.57219   1.59214   1.62154
 Alpha virt. eigenvalues --    1.64017   1.64270   1.72896   1.73088   1.74265
 Alpha virt. eigenvalues --    1.89786   1.91661   1.95648   1.95819   2.00448
 Alpha virt. eigenvalues --    2.06908   2.11250   2.15201   2.18103   2.22458
 Alpha virt. eigenvalues --    2.22827   2.27920   2.28905   2.31137   2.33596
 Alpha virt. eigenvalues --    2.36496   2.39330   2.45247   2.45273   2.47779
 Alpha virt. eigenvalues --    2.53194   2.57137   2.59307   2.68513   2.70624
 Alpha virt. eigenvalues --    2.78236   2.78929   2.83125   2.87012   2.90597
 Alpha virt. eigenvalues --    2.94477   2.95763   2.96280   3.10563   3.24756
 Alpha virt. eigenvalues --    3.36097   3.63616   4.06142   4.08170   4.33049
 Alpha virt. eigenvalues --    4.37160   4.38679   4.46724   4.59731   4.67784
 Alpha virt. eigenvalues --    4.97269
          Condensed to atoms (all electrons):
              1          2          3          4          5          6
     1  N    7.001115   0.401692  -0.083836   0.002593  -0.000318  -0.062581
     2  C    0.401692   4.184184   0.401688  -0.021136  -0.021641   0.424263
     3  N   -0.083836   0.401688   7.001119   0.315978   0.317711  -0.062575
     4  H    0.002593  -0.021136   0.315978   0.252920  -0.009158  -0.000290
     5  H   -0.000318  -0.021641   0.317711  -0.009158   0.267355   0.002673
     6  C   -0.062581   0.424263  -0.062575  -0.000290   0.002673   4.930936
     7  C   -0.006920  -0.038269   0.001776  -0.000097  -0.000067   0.520232
     8  C    0.000215   0.002833  -0.000074  -0.000017   0.000001  -0.044184
     9  C    0.000008  -0.000035   0.000008  -0.000003   0.000000  -0.025690
    10  C   -0.000074   0.002833   0.000215  -0.000010   0.000003  -0.044183
    11  C    0.001776  -0.038270  -0.006921   0.004685   0.000017   0.520231
    12  H    0.317710  -0.021640  -0.000317  -0.000059   0.002183   0.002673
    13  H    0.315979  -0.021138   0.002593  -0.000046  -0.000059  -0.000290
    14  H    0.002101  -0.001040  -0.000057  -0.000002  -0.000001  -0.041113
    15  H   -0.000003  -0.000087   0.000001   0.000000   0.000000   0.001872
    16  H    0.000000   0.000003   0.000000   0.000000   0.000000   0.000226
    17  H    0.000001  -0.000087  -0.000003   0.000002   0.000000   0.001873
    18  H   -0.000057  -0.001041   0.002102   0.000784  -0.000008  -0.041114
              7          8          9         10         11         12
     1  N   -0.006920   0.000215   0.000008  -0.000074   0.001776   0.317710
     2  C   -0.038269   0.002833  -0.000035   0.002833  -0.038270  -0.021640
     3  N    0.001776  -0.000074   0.000008   0.000215  -0.006921  -0.000317
     4  H   -0.000097  -0.000017  -0.000003  -0.000010   0.004685  -0.000059
     5  H   -0.000067   0.000001   0.000000   0.000003   0.000017   0.002183
     6  C    0.520232  -0.044184  -0.025690  -0.044183   0.520231   0.002673
     7  C    4.914642   0.547141  -0.044476  -0.034303  -0.029351   0.000017
     8  C    0.547141   4.890020   0.538725  -0.037285  -0.034304   0.000003
     9  C   -0.044476   0.538725   4.863851   0.538730  -0.044476   0.000000
    10  C   -0.034303  -0.037285   0.538730   4.890015   0.547138   0.000001
    11  C   -0.029351  -0.034304  -0.044476   0.547138   4.914642  -0.000067
    12  H    0.000017   0.000003   0.000000   0.000001  -0.000067   0.267357
    13  H    0.004686  -0.000010  -0.000003  -0.000017  -0.000097  -0.009158
    14  H    0.378011  -0.015670   0.002105   0.000089   0.001698  -0.000008
    15  H   -0.026459   0.379520  -0.023428   0.002080   0.000221   0.000000
    16  H    0.002488  -0.025753   0.377860  -0.025753   0.002488   0.000000
    17  H    0.000221   0.002080  -0.023428   0.379520  -0.026460   0.000000
    18  H    0.001698   0.000089   0.002105  -0.015671   0.378013  -0.000001
             13         14         15         16         17         18
     1  N    0.315979   0.002101  -0.000003   0.000000   0.000001  -0.000057
     2  C   -0.021138  -0.001040  -0.000087   0.000003  -0.000087  -0.001041
     3  N    0.002593  -0.000057   0.000001   0.000000  -0.000003   0.002102
     4  H   -0.000046  -0.000002   0.000000   0.000000   0.000002   0.000784
     5  H   -0.000059  -0.000001   0.000000   0.000000   0.000000  -0.000008
     6  C   -0.000290  -0.041113   0.001872   0.000226   0.001873  -0.041114
     7  C    0.004686   0.378011  -0.026459   0.002488   0.000221   0.001698
     8  C   -0.000010  -0.015670   0.379520  -0.025753   0.002080   0.000089
     9  C   -0.000003   0.002105  -0.023428   0.377860  -0.023428   0.002105
    10  C   -0.000017   0.000089   0.002080  -0.025753   0.379520  -0.015671
    11  C   -0.000097   0.001698   0.000221   0.002488  -0.026460   0.378013
    12  H   -0.009158  -0.000008   0.000000   0.000000   0.000000  -0.000001
    13  H    0.252920   0.000783   0.000002   0.000000   0.000000  -0.000002
    14  H    0.000783   0.426037  -0.001091  -0.000084   0.000008  -0.000081
    15  H    0.000002  -0.001091   0.410741  -0.001051  -0.000078   0.000008
    16  H    0.000000  -0.000084  -0.001051   0.407838  -0.001051  -0.000084
    17  H    0.000000   0.000008  -0.000078  -0.001051   0.410741  -0.001091
    18  H   -0.000002  -0.000081   0.000008  -0.000084  -0.001091   0.426045
 Mulliken atomic charges:
              1
     1  N   -0.889402
     2  C    0.746889
     3  N   -0.889409
     4  H    0.453857
     5  H    0.441308
     6  C   -0.082960
     7  C   -0.190970
     8  C   -0.203331
     9  C   -0.161853
    10  C   -0.203329
    11  C   -0.190962
    12  H    0.441306
    13  H    0.453857
    14  H    0.248313
    15  H    0.257754
    16  H    0.262873
    17  H    0.257754
    18  H    0.248305
 Sum of Mulliken atomic charges =   1.00000
 Mulliken charges with hydrogens summed into heavy atoms:
              1
     1  N    0.005761
     2  C    0.746889
     3  N    0.005756
     6  C   -0.082960
     7  C    0.057343
     8  C    0.054424
     9  C    0.101020
    10  C    0.054425
    11  C    0.057343
 Sum of Mulliken charges with hydrogens summed into heavy atoms =   1.00000
 DipInt: DoE/N= T F RetVal/Mat= T F Init=T NMatP=  1 IDeriv=0 Min/MaxMlt=  0  4
 Entering OneElI...
 OneElI was handed    33491921 working-precision words.
 Multipole integrals L=0 to 4 MinM= 0 MaxM= 0.
 Requested accuracy = 0.1000D-12
 PrsmSu:  NPrtUS=   1 ThrOK=F IAlg=1 NPAlg=1 LenDen=           0.
 Prism:   IPart=     0 DynPar=F LinDyn=F Incr=          13.
 PRISM was handed    33363619 working-precision words and  1397 shell-pairs
 IPart=  0 NShTot=        1397 NBatch=          43 AvBLen=        32.5
 PrSmSu:  NxtVal=             14.
 Electronic moments (au):
        -64.00000000         -2.23598694          0.00004849          0.00004468
       -845.09155325       -299.23429545        -66.78916530         -0.00047067
         -0.00026743         -2.06601317        -18.28137462         -0.00381304
         -0.00136531        -66.28936984         -0.01025040         -0.03756885
         41.42400009          0.00816610         -0.00011852       -239.99246855
     -19667.40609667      -2988.22070991       -268.10093881          0.08751190
         -0.06218147         -0.02942938       -136.53309101          0.01037579
         16.34918256      -3690.75376203       -942.53755279       -389.81676281
        358.63434892          0.02393573         -0.01853844
 Electronic spatial extent (au):  <R**2>=           1211.1150
 DipInt: DoE/N= F T RetVal/Mat= T F Init=T NMatP=  1 IDeriv=0 Min/MaxMlt=  0  4
 Nuclear    moments (au):
         65.00000000          0.00000000          0.00000000          0.00000000
        834.74145678        272.50112514         26.95874768          0.00000000
          0.00000000          0.00000000        -75.65013884          0.00583639
          0.00170415         45.81610225          0.01296884          0.04347428
        -56.65684716         -0.00920885         -0.00034414        259.80090735
      17953.38456638       2141.67047430         34.01642371         -0.10569767
          0.04043235          0.02141121        104.50141227         -0.01240555
        -43.14250285       3226.87111014        396.29976256        200.48804376
       -405.98180640         -0.02613490          0.01976722
 Total      moments (au):
          1.00000000         -2.23598694          0.00004849          0.00004468
        -10.35009647        -26.73317031        -39.83041762         -0.00047067
         -0.00026743         -2.06601317        -93.93151347          0.00202335
          0.00033884        -20.47326759          0.00271844          0.00590543
        -15.23284707         -0.00104275         -0.00046266         19.80843880
      -1714.02153029       -846.55023561       -234.08451510         -0.01818576
         -0.02174911         -0.00801817        -32.03167874         -0.00202977
        -26.79332029       -463.88265189       -546.23779023       -189.32871905
        -47.34745749         -0.00219917          0.00122878
 Traceless Quadrup. (au):
         15.28779833         -1.09527551        -14.19252282         -0.00047067
         -0.00026743         -2.06601317
 Charge=              1.0000 electrons
 Dipole moment (field-independent basis, Debye):
    X=             -5.6833    Y=              0.0001    Z=              0.0001  Tot=              5.6833
 Quadrupole moment (field-independent basis, Debye-Ang):
   XX=            -13.9212   YY=            -35.9570   ZZ=            -53.5733
   XY=             -0.0006   XZ=             -0.0004   YZ=             -2.7789
 Traceless Quadrupole moment (field-independent basis, Debye-Ang):
   XX=             20.5626   YY=             -1.4732   ZZ=            -19.0894
   XY=             -0.0006   XZ=             -0.0004   YZ=             -2.7789
 Octapole moment (field-independent basis, Debye-Ang**2):
  XXX=            -66.8568  YYY=              0.0014  ZZZ=              0.0002  XYY=            -14.5721
  XXY=              0.0019  XXZ=              0.0042  XZZ=            -10.8422  YZZ=             -0.0007
  YYZ=             -0.0003  XYZ=             14.0989
 Hexadecapole moment (field-independent basis, Debye-Ang**3):
 XXXX=           -645.5827 YYYY=           -318.8514 ZZZZ=            -88.1674 XXXY=             -0.0068
 XXXZ=             -0.0082 YYYX=             -0.0030 YYYZ=            -12.0647 ZZZX=             -0.0008
 ZZZY=            -10.0916 XXYY=           -174.7204 XXZZ=           -205.7393 YYZZ=            -71.3103
 XXYZ=            -17.8333 YYXZ=             -0.0008 ZZXY=              0.0005
 N-N= 4.169237107357D+02 E-N=-1.705693115871D+03  KE= 3.780351778736D+02
 Entering OneElI...
 OneElI was handed    33444500 working-precision words.
 Calculate electrostatic properties
    NBasis =   153  MinDer = 0  MaxDer = 0
    NGrid  =    18  NMatD  =   1
 Requested accuracy = 0.1000D-12
 PrsmSu:  NPrtUS=   2 ThrOK=T IAlg=1 NPAlg=1 LenDen=           0.
 Prism:   IPart=     0 DynPar=F LinDyn=F Incr=         119.
 PRISM was handed    16638869 working-precision words and  1332 shell-pairs
 PRISM was handed    16638869 working-precision words and  1332 shell-pairs
 IPart=  0 NShTot=       12150 NBatch=         675 AvBLen=        18.0
 IPart=  1 NShTot=       11826 NBatch=         657 AvBLen=        18.0
 PrSmSu:  NxtVal=            239.
 --------------------------------------------------------
       Center         ----      EFG at Nuclei      ----
                      3XX-RR        3YY-RR        3ZZ-RR
 --------------------------------------------------------
     1   Atom       -0.368614     -0.176550      0.545164
     2   Atom        0.466804      0.031075     -0.497880
     3   Atom       -0.368580     -0.176617      0.545197
     4   Atom        0.026166     -0.108058      0.081892
     5   Atom       -0.375165      0.165486      0.209679
     6   Atom       -0.096734      0.181310     -0.084576
     7   Atom        0.231855      0.107326     -0.339181
     8   Atom        0.158267      0.164020     -0.322287
     9   Atom        0.230008      0.202740     -0.432749
    10   Atom        0.158264      0.164030     -0.322294
    11   Atom        0.231859      0.107341     -0.339200
    12   Atom       -0.375181      0.165490      0.209691
    13   Atom        0.026111     -0.108026      0.081915
    14   Atom        0.028238     -0.169697      0.141459
    15   Atom        0.029500     -0.175688      0.146188
    16   Atom       -0.300245      0.142236      0.158009
    17   Atom        0.029519     -0.175710      0.146191
    18   Atom        0.028221     -0.169704      0.141483
 --------------------------------------------------------
                        XY            XZ            YZ
 --------------------------------------------------------
     1   Atom       -0.158595     -0.077576      0.531635
     2   Atom       -0.000024     -0.000061     -0.309896
     3   Atom        0.158674      0.077747      0.531550
     4   Atom       -0.186079      0.134275      0.221107
     5   Atom        0.042546      0.040961      0.028560
     6   Atom       -0.000003     -0.000015      0.068717
     7   Atom        0.012199     -0.004350      0.128070
     8   Atom        0.001111     -0.003845      0.112795
     9   Atom       -0.000010      0.000035      0.138559
    10   Atom       -0.001125      0.003889      0.112774
    11   Atom       -0.012199      0.004390      0.128055
    12   Atom       -0.042543     -0.040864      0.028569
    13   Atom        0.186113     -0.134282      0.221085
    14   Atom       -0.184933     -0.044020     -0.084592
    15   Atom        0.186109      0.042445     -0.077213
    16   Atom       -0.000005     -0.000027     -0.003638
    17   Atom       -0.186099     -0.042440     -0.077210
    18   Atom        0.184950      0.043995     -0.084548
 --------------------------------------------------------


 ---------------------------------------------------------------------------------
              Nuclear Quadrupole in Principal Axis System
 ---------------------------------------------------------------------------------

       Atom             a.u.   MegaHertz   Gauss  10(-4) cm-1        Axes

              Baa    -0.5312   -20.489    -7.311    -6.834  0.5742  0.7497 -0.3289
     1 N(14)  Bbb    -0.3125   -12.054    -4.301    -4.021  0.8102 -0.4626  0.3600
              Bcc     0.8438    32.543    11.612    10.855 -0.1178  0.4732  0.8730
 
              Baa    -0.6408   -85.991   -30.684   -28.684  0.0001  0.4188  0.9081
     2 C(13)  Bbb     0.1740    23.350     8.332     7.789  0.0000  0.9081 -0.4188
              Bcc     0.4668    62.641    22.352    20.895  1.0000  0.0000 -0.0001
 
              Baa    -0.5312   -20.488    -7.311    -6.834 -0.5743  0.7498 -0.3288
     3 N(14)  Bbb    -0.3125   -12.054    -4.301    -4.021  0.8101  0.4626 -0.3601
              Bcc     0.8438    32.542    11.612    10.855  0.1179  0.4731  0.8731
 
              Baa    -0.3824  -204.038   -72.806   -68.060  0.4895  0.7239 -0.4863
     4 H(1)   Bbb     0.1538    82.080    29.288    27.379  0.8658 -0.4698  0.1722
              Bcc     0.2286   121.958    43.518    40.681  0.1037  0.5053  0.8567
 
              Baa    -0.3810  -203.296   -72.541   -67.812  0.9951 -0.0740 -0.0654
     5 H(1)   Bbb     0.1522    81.198    28.974    27.085  0.0353  0.8848 -0.4647
              Bcc     0.2288   122.098    43.568    40.728  0.0923  0.4601  0.8831
 
              Baa    -0.1013   -13.592    -4.850    -4.534  0.0030 -0.2363  0.9717
     6 C(13)  Bbb    -0.0967   -12.981    -4.632    -4.330  1.0000  0.0007 -0.0029
              Bcc     0.1980    26.572     9.482     8.864  0.0000  0.9717  0.2363
 
              Baa    -0.3734   -50.106   -17.879   -16.714  0.0121 -0.2577  0.9661
     7 C(13)  Bbb     0.1402    18.815     6.714     6.276 -0.1155  0.9594  0.2573
              Bcc     0.2332    31.291    11.165    10.438  0.9932  0.1147  0.0181
 
              Baa    -0.3472   -46.592   -16.625   -15.541  0.0079 -0.2155  0.9765
     8 C(13)  Bbb     0.1583    21.242     7.580     7.086  0.9999 -0.0065 -0.0095
              Bcc     0.1889    25.350     9.046     8.456  0.0084  0.9765  0.2154
 
              Baa    -0.4616   -61.948   -22.105   -20.664 -0.0001 -0.2042  0.9789
     9 C(13)  Bbb     0.2300    30.865    11.013    10.295  1.0000  0.0014  0.0003
              Bcc     0.2316    31.083    11.091    10.368 -0.0014  0.9789  0.2042
 
              Baa    -0.3472   -46.592   -16.625   -15.541 -0.0080 -0.2154  0.9765
    10 C(13)  Bbb     0.1583    21.241     7.579     7.085  0.9999  0.0066  0.0096
              Bcc     0.1889    25.350     9.046     8.456 -0.0085  0.9765  0.2154
 
              Baa    -0.3734   -50.107   -17.880   -16.714 -0.0122 -0.2577  0.9662
    11 C(13)  Bbb     0.1402    18.816     6.714     6.276  0.1154  0.9594  0.2573
              Bcc     0.2332    31.291    11.166    10.438  0.9932 -0.1146 -0.0180
 
              Baa    -0.3810  -203.298   -72.542   -67.813  0.9951  0.0741  0.0653
    12 H(1)   Bbb     0.1522    81.199    28.974    27.085 -0.0354  0.8848 -0.4647
              Bcc     0.2288   122.099    43.568    40.728 -0.0921  0.4601  0.8831
 
              Baa    -0.3824  -204.040   -72.806   -68.060 -0.4896  0.7238 -0.4862
    13 H(1)   Bbb     0.1538    82.080    29.288    27.379  0.8658  0.4698 -0.1724
              Bcc     0.2286   121.960    43.518    40.681 -0.1036  0.5054  0.8567
 
              Baa    -0.3010  -160.580   -57.299   -53.564  0.5000  0.8401  0.2104
    14 H(1)   Bbb     0.1377    73.490    26.223    24.514  0.8615 -0.4580 -0.2191
              Bcc     0.1632    87.090    31.076    29.050  0.0877 -0.2908  0.9528
 
              Baa    -0.3029  -161.602   -57.664   -53.905 -0.4980  0.8455  0.1925
    15 H(1)   Bbb     0.1391    74.232    26.488    24.761  0.8672  0.4865  0.1068
              Bcc     0.1638    87.370    31.176    29.144  0.0033 -0.2201  0.9755
 
              Baa    -0.3002  -160.197   -57.162   -53.436  1.0000  0.0000  0.0001
    16 H(1)   Bbb     0.1414    75.464    26.927    25.172  0.0000  0.9767  0.2144
              Bcc     0.1588    84.732    30.235    28.264 -0.0001 -0.2144  0.9767
 
              Baa    -0.3029  -161.603   -57.664   -53.905  0.4980  0.8456  0.1924
    17 H(1)   Bbb     0.1391    74.232    26.488    24.761  0.8672 -0.4864 -0.1067
              Bcc     0.1638    87.371    31.176    29.144 -0.0034 -0.2200  0.9755
 
              Baa    -0.3010  -160.580   -57.299   -53.564 -0.5001  0.8401  0.2103
    18 H(1)   Bbb     0.1377    73.490    26.223    24.514  0.8615  0.4580  0.2191
              Bcc     0.1632    87.091    31.076    29.050 -0.0878 -0.2907  0.9528
 

 ---------------------------------------------------------------------------------

 No NMR shielding tensors so no spin-rotation constants.
 Leave Link  601 at Fri Aug 24 15:35:56 2018, MaxMem=   33554432 cpu:       0.4
 Merz-Kollman atomic radii used.
 Read replacement radii for each type of atom:
 Atom Element Radius
    1     7    1.50
    2     6    1.50
    3     7    1.50
    4     1    1.20
    5     1    1.20
    6     6    1.50
    7     6    1.50
    8     6    1.50
    9     6    1.50
   10     6    1.50
   11     6    1.50
   12     1    1.20
   13     1    1.20
   14     1    1.20
   15     1    1.20
   16     1    1.20
   17     1    1.20
   18     1    1.20
 Generate VDW surfaces: Layer= 4 Dens= 1 Start= 1.400 Inc= 0.200

 **********************************************************************

            Electrostatic Properties Using The SCF Density

 **********************************************************************

       Atomic Center    1 is at  -2.309991 -1.055314  0.462057
       Atomic Center    2 is at  -1.645359 -0.000018 -0.000036
       Atomic Center    3 is at  -2.310053  1.055281 -0.461992
       Atomic Center    4 is at  -1.815394  1.785347 -0.957339
       Atomic Center    5 is at  -3.317821  1.140740 -0.399276
       Atomic Center    6 is at  -0.178429 -0.000017 -0.000068
       Atomic Center    7 is at   0.524853 -1.193671 -0.249004
       Atomic Center    8 is at   1.915989 -1.186601 -0.252143
       Atomic Center    9 is at   2.610903  0.000030  0.000054
       Atomic Center   10 is at   1.915934  1.186644  0.252165
       Atomic Center   11 is at   0.524794  1.193657  0.248928
       Atomic Center   12 is at  -3.317769 -1.140772  0.399509
       Atomic Center   13 is at  -1.815225 -1.785336  0.957359
       Atomic Center   14 is at  -0.008911 -2.109203 -0.488107
       Atomic Center   15 is at   2.457938 -2.103183 -0.461270
       Atomic Center   16 is at   3.696549  0.000041  0.000122
       Atomic Center   17 is at   2.457836  2.103256  0.461275
       Atomic Center   18 is at  -0.009009  2.109201  0.487894
      ESP Fit Center   19 is at  -2.309991 -1.055314  2.562057
      ESP Fit Center   20 is at  -1.784991 -0.145987  2.280710
      ESP Fit Center   21 is at  -2.834991 -0.145987  2.280710
      ESP Fit Center   22 is at  -3.359991 -1.055314  2.280710
      ESP Fit Center   23 is at  -2.834991 -1.964640  2.280710
      ESP Fit Center   24 is at  -3.500955  0.319133  1.512057
      ESP Fit Center   25 is at  -3.500955 -2.429760  1.512057
      ESP Fit Center   26 is at  -3.054661 -3.018848  0.462057
      ESP Fit Center   27 is at  -2.568812 -2.855456 -0.587943
      ESP Fit Center   28 is at  -3.359991 -1.055314 -1.356596
      ESP Fit Center   29 is at  -2.834991 -1.964640 -1.356596
      ESP Fit Center   30 is at  -1.784991 -1.964640 -1.356596
      ESP Fit Center   31 is at  -1.120359  0.909309  1.818617
      ESP Fit Center   32 is at  -2.170359  0.909309  1.818617
      ESP Fit Center   33 is at  -2.170359 -0.909345 -1.818689
      ESP Fit Center   34 is at  -1.120359 -0.909345 -1.818689
      ESP Fit Center   35 is at  -1.785053  1.964608  1.356662
      ESP Fit Center   36 is at  -2.835053  1.964608  1.356662
      ESP Fit Center   37 is at  -3.360053  1.055281  1.356662
      ESP Fit Center   38 is at  -2.568874  2.855423  0.588008
      ESP Fit Center   39 is at  -3.054723  3.018815 -0.461992
      ESP Fit Center   40 is at  -3.501018  2.429728 -1.511992
      ESP Fit Center   41 is at  -3.501018 -0.319165 -1.511992
      ESP Fit Center   42 is at  -2.835053  1.964608 -2.280645
      ESP Fit Center   43 is at  -3.360053  1.055281 -2.280645
      ESP Fit Center   44 is at  -2.835053  0.145954 -2.280645
      ESP Fit Center   45 is at  -1.785053  0.145954 -2.280645
      ESP Fit Center   46 is at  -2.310053  1.055281 -2.561992
      ESP Fit Center   47 is at  -1.537943  3.358848 -0.438190
      ESP Fit Center   48 is at  -2.614282  3.169060 -0.438190
      ESP Fit Center   49 is at  -0.591427  2.812376 -1.476487
      ESP Fit Center   50 is at  -1.537943  3.358848 -1.476487
      ESP Fit Center   51 is at  -2.614282  3.169060 -1.476487
      ESP Fit Center   52 is at  -0.827915  1.785347 -2.316487
      ESP Fit Center   53 is at  -1.510246  2.724495 -2.316487
      ESP Fit Center   54 is at  -2.614282  2.365772 -2.316487
      ESP Fit Center   55 is at  -1.815394  1.785347 -2.637339
      ESP Fit Center   56 is at  -4.116708  1.721165  0.959872
      ESP Fit Center   57 is at  -4.116708  0.560314  0.959872
      ESP Fit Center   58 is at  -4.116708  2.524453  0.119872
      ESP Fit Center   59 is at  -4.819238  1.687211  0.119872
      ESP Fit Center   60 is at  -4.819238  0.594269  0.119872
      ESP Fit Center   61 is at  -4.116708  2.524453 -0.918425
      ESP Fit Center   62 is at  -4.819238  1.687211 -0.918425
      ESP Fit Center   63 is at  -4.819238  0.594269 -0.918425
      ESP Fit Center   64 is at  -4.116708 -0.242974 -0.918425
      ESP Fit Center   65 is at  -4.116708  1.721165 -1.758425
      ESP Fit Center   66 is at  -4.116708  0.560314 -1.758425
      ESP Fit Center   67 is at  -0.178429 -0.000017  2.099932
      ESP Fit Center   68 is at  -0.178429 -0.000017 -2.100068
      ESP Fit Center   69 is at   0.524853 -1.193671  1.850996
      ESP Fit Center   70 is at  -0.000147 -2.102998  1.569649
      ESP Fit Center   71 is at   1.049853 -2.102998  1.569649
      ESP Fit Center   72 is at   1.049853 -0.284345 -2.067658
      ESP Fit Center   73 is at  -0.525147 -1.193671 -2.067658
      ESP Fit Center   74 is at   1.049853 -2.102998 -2.067658
      ESP Fit Center   75 is at   0.524853 -1.193671 -2.349004
      ESP Fit Center   76 is at   1.915989 -1.186601  1.847857
      ESP Fit Center   77 is at   1.390989 -2.095928  1.566510
      ESP Fit Center   78 is at   2.440989 -2.095928  1.566510
      ESP Fit Center   79 is at   1.657168 -2.986743  0.797857
      ESP Fit Center   80 is at   2.965989 -1.186601 -2.070797
      ESP Fit Center   81 is at   1.390989 -0.277275 -2.070797
      ESP Fit Center   82 is at   1.390989 -2.095928 -2.070797
      ESP Fit Center   83 is at   1.915989 -1.186601 -2.352143
      ESP Fit Center   84 is at   2.610903  0.000030  2.100054
      ESP Fit Center   85 is at   3.660903  0.000030  1.818707
      ESP Fit Center   86 is at   3.135903 -0.909297  1.818707
      ESP Fit Center   87 is at   3.660903  0.000030 -1.818599
      ESP Fit Center   88 is at   3.135903  0.909357 -1.818599
      ESP Fit Center   89 is at   2.610903  0.000030 -2.099946
      ESP Fit Center   90 is at   1.915934  1.186644  2.352165
      ESP Fit Center   91 is at   2.965934  1.186644  2.070819
      ESP Fit Center   92 is at   1.390934  2.095970  2.070819
      ESP Fit Center   93 is at   1.390934  0.277317  2.070819
      ESP Fit Center   94 is at   1.657112  2.986786 -0.797835
      ESP Fit Center   95 is at   2.440934  2.095970 -1.566488
      ESP Fit Center   96 is at   1.390934  2.095970 -1.566488
      ESP Fit Center   97 is at   1.915934  1.186644 -1.847835
      ESP Fit Center   98 is at   0.524794  1.193657  2.348928
      ESP Fit Center   99 is at   1.049794  2.102984  2.067582
      ESP Fit Center  100 is at  -0.525206  1.193657  2.067582
      ESP Fit Center  101 is at   1.049794  0.284331  2.067582
      ESP Fit Center  102 is at   1.049794  2.102984 -1.569725
      ESP Fit Center  103 is at  -0.000206  2.102984 -1.569725
      ESP Fit Center  104 is at   0.524794  1.193657 -1.851072
      ESP Fit Center  105 is at  -4.116656 -0.560346  1.758658
      ESP Fit Center  106 is at  -4.116656 -1.721198  1.758658
      ESP Fit Center  107 is at  -4.116656  0.242942  0.918658
      ESP Fit Center  108 is at  -4.819186 -0.594301  0.918658
      ESP Fit Center  109 is at  -4.819186 -1.687243  0.918658
      ESP Fit Center  110 is at  -4.116656 -2.524486  0.918658
      ESP Fit Center  111 is at  -4.819186 -0.594301 -0.119639
      ESP Fit Center  112 is at  -4.819186 -1.687243 -0.119639
      ESP Fit Center  113 is at  -4.116656 -2.524486 -0.119639
      ESP Fit Center  114 is at  -4.116656 -0.560346 -0.959639
      ESP Fit Center  115 is at  -4.116656 -1.721198 -0.959639
      ESP Fit Center  116 is at  -1.815225 -1.785336  2.637359
      ESP Fit Center  117 is at  -0.827746 -1.785336  2.316507
      ESP Fit Center  118 is at  -2.614113 -2.365761  2.316507
      ESP Fit Center  119 is at  -1.510077 -2.724484  2.316507
      ESP Fit Center  120 is at  -2.614113 -3.169049  1.476507
      ESP Fit Center  121 is at  -1.537774 -3.358837  1.476507
      ESP Fit Center  122 is at  -0.591259 -2.812366  1.476507
      ESP Fit Center  123 is at  -2.614113 -3.169049  0.438210
      ESP Fit Center  124 is at  -1.537774 -3.358837  0.438210
      ESP Fit Center  125 is at   0.296237 -3.048352  0.871042
      ESP Fit Center  126 is at  -0.807799 -3.492917  0.031042
      ESP Fit Center  127 is at   0.268539 -3.682704  0.031042
      ESP Fit Center  128 is at  -1.510329 -2.655674 -1.007255
      ESP Fit Center  129 is at  -0.807799 -3.492917 -1.007255
      ESP Fit Center  130 is at   0.268539 -3.682704 -1.007255
      ESP Fit Center  131 is at   1.215055 -3.136233 -1.007255
      ESP Fit Center  132 is at  -0.807799 -1.528777 -1.847255
      ESP Fit Center  133 is at  -0.807799 -2.689629 -1.847255
      ESP Fit Center  134 is at   0.296237 -3.048352 -1.847255
      ESP Fit Center  135 is at  -0.008911 -2.109203 -2.168107
      ESP Fit Center  136 is at   3.445417 -2.103183  0.897879
      ESP Fit Center  137 is at   2.763086 -3.042331  0.897879
      ESP Fit Center  138 is at   4.055713 -2.103183  0.057879
      ESP Fit Center  139 is at   1.659050 -3.486896  0.057879
      ESP Fit Center  140 is at   2.735389 -3.676684  0.057879
      ESP Fit Center  141 is at   3.681904 -3.130213  0.057879
      ESP Fit Center  142 is at   4.055713 -2.103183 -0.980418
      ESP Fit Center  143 is at   1.659050 -3.486896 -0.980418
      ESP Fit Center  144 is at   2.735389 -3.676684 -0.980418
      ESP Fit Center  145 is at   3.681904 -3.130213 -0.980418
      ESP Fit Center  146 is at   3.445417 -2.103183 -1.820418
      ESP Fit Center  147 is at   1.659050 -2.683608 -1.820418
      ESP Fit Center  148 is at   2.763086 -3.042331 -1.820418
      ESP Fit Center  149 is at   2.457938 -2.103183 -2.141270
      ESP Fit Center  150 is at   4.684028  0.000041  1.359270
      ESP Fit Center  151 is at   4.001697  0.939190  1.359270
      ESP Fit Center  152 is at   4.001697 -0.939107  1.359270
      ESP Fit Center  153 is at   5.294324  0.000041  0.519270
      ESP Fit Center  154 is at   4.920515  1.027071  0.519270
      ESP Fit Center  155 is at   3.973999 -1.573460  0.519270
      ESP Fit Center  156 is at   4.920515 -1.026989  0.519270
      ESP Fit Center  157 is at   5.294324  0.000041 -0.519027
      ESP Fit Center  158 is at   4.920515  1.027071 -0.519027
      ESP Fit Center  159 is at   3.973999  1.573542 -0.519027
      ESP Fit Center  160 is at   4.920515 -1.026989 -0.519027
      ESP Fit Center  161 is at   4.684028  0.000041 -1.359027
      ESP Fit Center  162 is at   4.001697  0.939190 -1.359027
      ESP Fit Center  163 is at   4.001697 -0.939107 -1.359027
      ESP Fit Center  164 is at   2.457836  2.103256  2.141275
      ESP Fit Center  165 is at   3.445315  2.103256  1.820424
      ESP Fit Center  166 is at   2.762984  3.042404  1.820424
      ESP Fit Center  167 is at   1.658949  2.683682  1.820424
      ESP Fit Center  168 is at   4.055611  2.103256  0.980424
      ESP Fit Center  169 is at   3.681803  3.130286  0.980424
      ESP Fit Center  170 is at   2.735287  3.676757  0.980424
      ESP Fit Center  171 is at   1.658949  3.486970  0.980424
      ESP Fit Center  172 is at   4.055611  2.103256 -0.057873
      ESP Fit Center  173 is at   3.681803  3.130286 -0.057873
      ESP Fit Center  174 is at   2.735287  3.676757 -0.057873
      ESP Fit Center  175 is at   1.658949  3.486970 -0.057873
      ESP Fit Center  176 is at   3.445315  2.103256 -0.897873
      ESP Fit Center  177 is at   2.762984  3.042404 -0.897873
      ESP Fit Center  178 is at  -0.009009  2.109201  2.167894
      ESP Fit Center  179 is at   0.296139  3.048350  1.847043
      ESP Fit Center  180 is at  -0.807896  2.689627  1.847043
      ESP Fit Center  181 is at  -0.807896  1.528775  1.847043
      ESP Fit Center  182 is at   1.214958  3.136231  1.007043
      ESP Fit Center  183 is at   0.268442  3.682702  1.007043
      ESP Fit Center  184 is at  -0.807896  3.492915  1.007043
      ESP Fit Center  185 is at  -1.510426  2.655672  1.007043
      ESP Fit Center  186 is at   0.268442  3.682702 -0.031254
      ESP Fit Center  187 is at  -0.807896  3.492915 -0.031254
      ESP Fit Center  188 is at   0.296139  3.048350 -0.871254
      ESP Fit Center  189 is at  -2.309991 -1.055314  2.862057
      ESP Fit Center  190 is at  -1.789330 -0.153503  2.624382
      ESP Fit Center  191 is at  -2.830651 -0.153503  2.624382
      ESP Fit Center  192 is at  -3.351312 -1.055314  2.624382
      ESP Fit Center  193 is at  -2.830651 -1.957124  2.624382
      ESP Fit Center  194 is at  -3.538769  0.362771  1.958433
      ESP Fit Center  195 is at  -3.538769 -2.473399  1.958433
      ESP Fit Center  196 is at  -2.830651 -3.336476 -0.071993
      ESP Fit Center  197 is at  -3.538769 -2.473399 -1.034319
      ESP Fit Center  198 is at  -2.577030 -2.912610 -1.034319
      ESP Fit Center  199 is at  -3.351312 -1.055314 -1.700268
      ESP Fit Center  200 is at  -2.830651 -1.957124 -1.700268
      ESP Fit Center  201 is at  -1.789330 -1.957124 -1.700268
      ESP Fit Center  202 is at  -1.124699  0.901793  2.162289
      ESP Fit Center  203 is at  -2.166020  0.901793  2.162289
      ESP Fit Center  204 is at  -2.166020 -0.901828 -2.162361
      ESP Fit Center  205 is at  -1.124699 -0.901828 -2.162361
      ESP Fit Center  206 is at  -1.789392  1.957091  1.700334
      ESP Fit Center  207 is at  -2.830713  1.957091  1.700334
      ESP Fit Center  208 is at  -3.351374  1.055281  1.700334
      ESP Fit Center  209 is at  -2.577092  2.912578  1.034384
      ESP Fit Center  210 is at  -3.538831  2.473366  1.034384
      ESP Fit Center  211 is at  -2.830713  3.336444  0.072059
      ESP Fit Center  212 is at  -3.538831  2.473366 -1.958367
      ESP Fit Center  213 is at  -3.538831 -0.362804 -1.958367
      ESP Fit Center  214 is at  -2.830713  1.957091 -2.624317
      ESP Fit Center  215 is at  -3.351374  1.055281 -2.624317
      ESP Fit Center  216 is at  -2.830713  0.153471 -2.624317
      ESP Fit Center  217 is at  -1.789392  0.153471 -2.624317
      ESP Fit Center  218 is at  -2.310053  1.055281 -2.861992
      ESP Fit Center  219 is at  -0.855394  3.448115 -0.957339
      ESP Fit Center  220 is at  -1.815394  3.705347 -0.957339
      ESP Fit Center  221 is at  -2.775394  3.448115 -0.957339
      ESP Fit Center  222 is at  -0.470186  2.762697 -1.917339
      ESP Fit Center  223 is at  -1.301570  3.366734 -1.917339
      ESP Fit Center  224 is at  -2.329218  3.366734 -1.917339
      ESP Fit Center  225 is at  -0.855394  1.785347 -2.620107
      ESP Fit Center  226 is at  -1.335394  2.616731 -2.620107
      ESP Fit Center  227 is at  -2.295394  2.616731 -2.620107
      ESP Fit Center  228 is at  -1.815394  1.785347 -2.877339
      ESP Fit Center  229 is at  -3.797821  1.972124  1.263493
      ESP Fit Center  230 is at  -4.277821  1.140740  1.263493
      ESP Fit Center  231 is at  -3.831645  2.722127  0.560724
      ESP Fit Center  232 is at  -4.663029  2.118091  0.560724
      ESP Fit Center  233 is at  -4.980590  1.140740  0.560724
      ESP Fit Center  234 is at  -4.277821  2.803509 -0.399276
      ESP Fit Center  235 is at  -4.980590  2.100740 -0.399276
      ESP Fit Center  236 is at  -5.237821  1.140740 -0.399276
      ESP Fit Center  237 is at  -4.980590  0.180740 -0.399276
      ESP Fit Center  238 is at  -3.831645  2.722127 -1.359276
      ESP Fit Center  239 is at  -4.663029  2.118091 -1.359276
      ESP Fit Center  240 is at  -4.980590  1.140740 -1.359276
      ESP Fit Center  241 is at  -4.663029  0.163389 -1.359276
      ESP Fit Center  242 is at  -4.277821  1.140740 -2.062045
      ESP Fit Center  243 is at  -0.178429 -0.000017  2.399932
      ESP Fit Center  244 is at   0.342232 -0.901828  2.162257
      ESP Fit Center  245 is at   0.342232  0.901793 -2.162394
      ESP Fit Center  246 is at  -0.178429 -0.000017 -2.400068
      ESP Fit Center  247 is at   0.524853 -1.193671  2.150996
      ESP Fit Center  248 is at   0.004193 -2.095482  1.913321
      ESP Fit Center  249 is at   1.045514 -2.095482  1.913321
      ESP Fit Center  250 is at   0.257814 -3.050968  1.247371
      ESP Fit Center  251 is at   1.045514 -0.291861 -2.411330
      ESP Fit Center  252 is at   0.004193 -0.291861 -2.411330
      ESP Fit Center  253 is at  -0.516468 -1.193671 -2.411330
      ESP Fit Center  254 is at   0.004193 -2.095482 -2.411330
      ESP Fit Center  255 is at   1.045514 -2.095482 -2.411330
      ESP Fit Center  256 is at   0.524853 -1.193671 -2.649004
      ESP Fit Center  257 is at   1.915989 -1.186601  2.147857
      ESP Fit Center  258 is at   1.395328 -2.088412  1.910182
      ESP Fit Center  259 is at   2.436649 -2.088412  1.910182
      ESP Fit Center  260 is at   1.648950 -3.043898  1.244232
      ESP Fit Center  261 is at   3.494513 -2.201057  1.244232
      ESP Fit Center  262 is at   3.792384 -1.186601 -1.748519
      ESP Fit Center  263 is at   2.957310 -1.186601 -2.414469
      ESP Fit Center  264 is at   2.436649 -0.284791 -2.414469
      ESP Fit Center  265 is at   1.395328 -0.284791 -2.414469
      ESP Fit Center  266 is at   1.395328 -2.088412 -2.414469
      ESP Fit Center  267 is at   2.436649 -2.088412 -2.414469
      ESP Fit Center  268 is at   1.915989 -1.186601 -2.652143
      ESP Fit Center  269 is at   2.610903  0.000030  2.400054
      ESP Fit Center  270 is at   3.652224  0.000030  2.162379
      ESP Fit Center  271 is at   2.090243 -0.901780  2.162379
      ESP Fit Center  272 is at   3.131564 -0.901780  2.162379
      ESP Fit Center  273 is at   3.652224  0.000030 -2.162271
      ESP Fit Center  274 is at   3.131564  0.901840 -2.162271
      ESP Fit Center  275 is at   2.090243  0.901840 -2.162271
      ESP Fit Center  276 is at   2.610903  0.000030 -2.399946
      ESP Fit Center  277 is at   1.915934  1.186644  2.652165
      ESP Fit Center  278 is at   2.957255  1.186644  2.414491
      ESP Fit Center  279 is at   2.436594  2.088454  2.414491
      ESP Fit Center  280 is at   1.395273  2.088454  2.414491
      ESP Fit Center  281 is at   1.395273  0.284833  2.414491
      ESP Fit Center  282 is at   2.436594  0.284833  2.414491
      ESP Fit Center  283 is at   3.792329  1.186644  1.748541
      ESP Fit Center  284 is at   3.494458  2.201100 -1.244210
      ESP Fit Center  285 is at   1.648895  3.043940 -1.244210
      ESP Fit Center  286 is at   2.436594  2.088454 -1.910160
      ESP Fit Center  287 is at   1.395273  2.088454 -1.910160
      ESP Fit Center  288 is at   1.915934  1.186644 -2.147835
      ESP Fit Center  289 is at   0.524794  1.193657  2.648928
      ESP Fit Center  290 is at   1.045455  2.095468  2.411254
      ESP Fit Center  291 is at   0.004134  2.095468  2.411254
      ESP Fit Center  292 is at  -0.516527  1.193657  2.411254
      ESP Fit Center  293 is at   0.004134  0.291847  2.411254
      ESP Fit Center  294 is at   1.045455  0.291847  2.411254
      ESP Fit Center  295 is at   0.257755  3.050954 -1.247447
      ESP Fit Center  296 is at   1.045455  2.095468 -1.913397
      ESP Fit Center  297 is at   0.004134  2.095468 -1.913397
      ESP Fit Center  298 is at   0.524794  1.193657 -2.151072
      ESP Fit Center  299 is at  -4.277769 -1.140772  2.062278
      ESP Fit Center  300 is at  -4.662977 -0.163421  1.359509
      ESP Fit Center  301 is at  -4.980538 -1.140772  1.359509
      ESP Fit Center  302 is at  -4.662977 -2.118123  1.359509
      ESP Fit Center  303 is at  -3.831593 -2.722159  1.359509
      ESP Fit Center  304 is at  -4.980538 -0.180772  0.399509
      ESP Fit Center  305 is at  -5.237769 -1.140772  0.399509
      ESP Fit Center  306 is at  -4.980538 -2.100772  0.399509
      ESP Fit Center  307 is at  -4.277769 -2.803541  0.399509
      ESP Fit Center  308 is at  -4.980538 -1.140772 -0.560491
      ESP Fit Center  309 is at  -4.662977 -2.118123 -0.560491
      ESP Fit Center  310 is at  -3.831593 -2.722159 -0.560491
      ESP Fit Center  311 is at  -4.277769 -1.140772 -1.263259
      ESP Fit Center  312 is at  -3.797769 -1.972156 -1.263259
      ESP Fit Center  313 is at  -1.815225 -1.785336  2.877359
      ESP Fit Center  314 is at  -0.855225 -1.785336  2.620127
      ESP Fit Center  315 is at  -2.295225 -2.616720  2.620127
      ESP Fit Center  316 is at  -1.335225 -2.616720  2.620127
      ESP Fit Center  317 is at  -2.329049 -3.366723  1.917359
      ESP Fit Center  318 is at  -1.301401 -3.366723  1.917359
      ESP Fit Center  319 is at  -0.470017 -2.762687  1.917359
      ESP Fit Center  320 is at  -2.775225 -3.448105  0.957359
      ESP Fit Center  321 is at  -1.815225 -3.705336  0.957359
      ESP Fit Center  322 is at  -0.855225 -3.448105  0.957359
      ESP Fit Center  323 is at  -0.522735 -3.690590  0.471893
      ESP Fit Center  324 is at   0.504913 -3.690590  0.471893
      ESP Fit Center  325 is at  -0.968911 -3.771972 -0.488107
      ESP Fit Center  326 is at  -0.008911 -4.029203 -0.488107
      ESP Fit Center  327 is at   0.951089 -3.771972 -0.488107
      ESP Fit Center  328 is at  -1.354119 -3.086554 -1.448107
      ESP Fit Center  329 is at  -0.522735 -3.690590 -1.448107
      ESP Fit Center  330 is at   0.504913 -3.690590 -1.448107
      ESP Fit Center  331 is at  -0.968911 -2.109203 -2.150875
      ESP Fit Center  332 is at  -0.488911 -2.940588 -2.150875
      ESP Fit Center  333 is at   0.471089 -2.940588 -2.150875
      ESP Fit Center  334 is at  -0.008911 -2.109203 -2.408107
      ESP Fit Center  335 is at   2.937938 -2.934567  1.201499
      ESP Fit Center  336 is at   4.120707 -2.103183  0.498730
      ESP Fit Center  337 is at   1.944114 -3.684570  0.498730
      ESP Fit Center  338 is at   2.971762 -3.684570  0.498730
      ESP Fit Center  339 is at   3.803146 -3.080534  0.498730
      ESP Fit Center  340 is at   4.377938 -2.103183 -0.461270
      ESP Fit Center  341 is at   1.497938 -3.765951 -0.461270
      ESP Fit Center  342 is at   2.457938 -4.023183 -0.461270
      ESP Fit Center  343 is at   3.417938 -3.765951 -0.461270
      ESP Fit Center  344 is at   4.120707 -3.063183 -0.461270
      ESP Fit Center  345 is at   4.120707 -2.103183 -1.421270
      ESP Fit Center  346 is at   1.944114 -3.684570 -1.421270
      ESP Fit Center  347 is at   2.971762 -3.684570 -1.421270
      ESP Fit Center  348 is at   3.803146 -3.080534 -1.421270
      ESP Fit Center  349 is at   3.417938 -2.103183 -2.124039
      ESP Fit Center  350 is at   1.977938 -2.934567 -2.124039
      ESP Fit Center  351 is at   2.937938 -2.934567 -2.124039
      ESP Fit Center  352 is at   4.656549  0.000041  1.662890
      ESP Fit Center  353 is at   4.176549  0.831426  1.662890
      ESP Fit Center  354 is at   4.176549 -0.831343  1.662890
      ESP Fit Center  355 is at   5.359317  0.000041  0.960122
      ESP Fit Center  356 is at   5.041757  0.977392  0.960122
      ESP Fit Center  357 is at   4.210372 -1.581346  0.960122
      ESP Fit Center  358 is at   5.041757 -0.977310  0.960122
      ESP Fit Center  359 is at   5.616549  0.000041  0.000122
      ESP Fit Center  360 is at   5.359317  0.960041  0.000122
      ESP Fit Center  361 is at   4.656549  1.662810  0.000122
      ESP Fit Center  362 is at   4.656549 -1.662727  0.000122
      ESP Fit Center  363 is at   5.359317 -0.959959  0.000122
      ESP Fit Center  364 is at   5.359317  0.000041 -0.959878
      ESP Fit Center  365 is at   5.041757  0.977392 -0.959878
      ESP Fit Center  366 is at   4.210372  1.581428 -0.959878
      ESP Fit Center  367 is at   5.041757 -0.977310 -0.959878
      ESP Fit Center  368 is at   4.656549  0.000041 -1.662647
      ESP Fit Center  369 is at   4.176549  0.831426 -1.662647
      ESP Fit Center  370 is at   4.176549 -0.831343 -1.662647
      ESP Fit Center  371 is at   3.417836  2.103256  2.124044
      ESP Fit Center  372 is at   2.937836  2.934640  2.124044
      ESP Fit Center  373 is at   1.977836  2.934640  2.124044
      ESP Fit Center  374 is at   4.120605  2.103256  1.421275
      ESP Fit Center  375 is at   3.803044  3.080607  1.421275
      ESP Fit Center  376 is at   2.971660  3.684643  1.421275
      ESP Fit Center  377 is at   1.944012  3.684643  1.421275
      ESP Fit Center  378 is at   4.377836  2.103256  0.461275
      ESP Fit Center  379 is at   4.120605  3.063256  0.461275
      ESP Fit Center  380 is at   3.417836  3.766025  0.461275
      ESP Fit Center  381 is at   2.457836  4.023256  0.461275
      ESP Fit Center  382 is at   1.497836  3.766025  0.461275
      ESP Fit Center  383 is at   4.120605  2.103256 -0.498725
      ESP Fit Center  384 is at   3.803044  3.080607 -0.498725
      ESP Fit Center  385 is at   2.971660  3.684643 -0.498725
      ESP Fit Center  386 is at   1.944012  3.684643 -0.498725
      ESP Fit Center  387 is at   2.937836  2.934640 -1.201494
      ESP Fit Center  388 is at  -0.009009  2.109201  2.407894
      ESP Fit Center  389 is at   0.470991  2.940586  2.150663
      ESP Fit Center  390 is at  -0.489009  2.940586  2.150663
      ESP Fit Center  391 is at  -0.969009  2.109201  2.150663
      ESP Fit Center  392 is at   0.504815  3.690588  1.447894
      ESP Fit Center  393 is at  -0.522833  3.690588  1.447894
      ESP Fit Center  394 is at  -1.354217  3.086552  1.447894
      ESP Fit Center  395 is at   0.950991  3.771970  0.487894
      ESP Fit Center  396 is at  -0.009009  4.029201  0.487894
      ESP Fit Center  397 is at  -0.969009  3.771970  0.487894
      ESP Fit Center  398 is at   0.504815  3.690588 -0.472106
      ESP Fit Center  399 is at  -0.522833  3.690588 -0.472106
      ESP Fit Center  400 is at  -2.309991 -1.055314  3.162057
      ESP Fit Center  401 is at  -1.276746 -1.055314  2.956532
      ESP Fit Center  402 is at  -1.793368 -0.160497  2.956532
      ESP Fit Center  403 is at  -2.826613 -0.160497  2.956532
      ESP Fit Center  404 is at  -3.343236 -1.055314  2.956532
      ESP Fit Center  405 is at  -2.826613 -1.950130  2.956532
      ESP Fit Center  406 is at  -3.560243  0.387555  2.371245
      ESP Fit Center  407 is at  -4.141844 -0.517433  2.371245
      ESP Fit Center  408 is at  -4.141844 -1.593194  2.371245
      ESP Fit Center  409 is at  -3.560243 -2.498182  2.371245
      ESP Fit Center  410 is at  -3.865270 -3.005573  1.495302
      ESP Fit Center  411 is at  -3.343236 -3.549788  0.462057
      ESP Fit Center  412 is at  -3.865270 -3.005573 -0.571188
      ESP Fit Center  413 is at  -2.865064 -3.487247 -0.571188
      ESP Fit Center  414 is at  -1.754918 -3.487247 -0.571188
      ESP Fit Center  415 is at  -3.560243 -2.498182 -1.447131
      ESP Fit Center  416 is at  -2.581697 -2.945069 -1.447131
      ESP Fit Center  417 is at  -3.343236 -1.055314 -2.032418
      ESP Fit Center  418 is at  -2.826613 -1.950130 -2.032418
      ESP Fit Center  419 is at  -1.793368 -1.950130 -2.032418
      ESP Fit Center  420 is at  -1.128736  0.894799  2.494439
      ESP Fit Center  421 is at  -2.161982  0.894799  2.494439
      ESP Fit Center  422 is at  -2.161982 -0.894835 -2.494511
      ESP Fit Center  423 is at  -1.128736 -0.894835 -2.494511
      ESP Fit Center  424 is at  -1.793430  1.950098  2.032483
      ESP Fit Center  425 is at  -2.826676  1.950098  2.032483
      ESP Fit Center  426 is at  -3.343298  1.055281  2.032483
      ESP Fit Center  427 is at  -2.581759  2.945037  1.447197
      ESP Fit Center  428 is at  -3.560305  2.498149  1.447197
      ESP Fit Center  429 is at  -1.754980  3.487214  0.571254
      ESP Fit Center  430 is at  -2.865126  3.487214  0.571254
      ESP Fit Center  431 is at  -3.865333  3.005540  0.571254
      ESP Fit Center  432 is at  -3.343298  3.549756 -0.461992
      ESP Fit Center  433 is at  -3.865333  3.005540 -1.495237
      ESP Fit Center  434 is at  -3.560305  2.498149 -2.371180
      ESP Fit Center  435 is at  -4.141906  1.593162 -2.371180
      ESP Fit Center  436 is at  -4.141906  0.517401 -2.371180
      ESP Fit Center  437 is at  -3.560305 -0.387587 -2.371180
      ESP Fit Center  438 is at  -1.276808  1.055281 -2.956466
      ESP Fit Center  439 is at  -2.826676  1.950098 -2.956466
      ESP Fit Center  440 is at  -3.343298  1.055281 -2.956466
      ESP Fit Center  441 is at  -2.826676  0.160464 -2.956466
      ESP Fit Center  442 is at  -1.793430  0.160464 -2.956466
      ESP Fit Center  443 is at  -2.310053  1.055281 -3.161992
      ESP Fit Center  444 is at  -1.555035  3.929598 -0.957339
      ESP Fit Center  445 is at  -2.581341  3.804982 -0.957339
      ESP Fit Center  446 is at  -0.241733  2.796677 -2.037339
      ESP Fit Center  447 is at  -1.038313  3.486918 -2.037339
      ESP Fit Center  448 is at  -2.081610  3.636921 -2.037339
      ESP Fit Center  449 is at  -3.040386  3.199063 -2.037339
      ESP Fit Center  450 is at  -0.735394  1.785347 -2.827953
      ESP Fit Center  451 is at  -1.275394  2.720654 -2.827953
      ESP Fit Center  452 is at  -2.355394  2.720654 -2.827953
      ESP Fit Center  453 is at  -1.815394  1.785347 -3.117339
      ESP Fit Center  454 is at  -4.397821  1.140740  1.471339
      ESP Fit Center  455 is at  -4.542813  2.554456  0.680724
      ESP Fit Center  456 is at  -5.112663  1.667753  0.680724
      ESP Fit Center  457 is at  -5.112663  0.613727  0.680724
      ESP Fit Center  458 is at  -4.083768  3.160375 -0.399276
      ESP Fit Center  459 is at  -4.934604  2.573085 -0.399276
      ESP Fit Center  460 is at  -5.415055  1.657662 -0.399276
      ESP Fit Center  461 is at  -5.415055  0.623818 -0.399276
      ESP Fit Center  462 is at  -4.542813  2.554456 -1.479276
      ESP Fit Center  463 is at  -5.112663  1.667753 -1.479276
      ESP Fit Center  464 is at  -5.112663  0.613727 -1.479276
      ESP Fit Center  465 is at  -4.542813 -0.272977 -1.479276
      ESP Fit Center  466 is at  -4.397821  1.140740 -2.269891
      ESP Fit Center  467 is at  -0.178429 -0.000017  2.699932
      ESP Fit Center  468 is at   0.338194 -0.894834  2.494406
      ESP Fit Center  469 is at   0.338194  0.894799 -2.494543
      ESP Fit Center  470 is at  -0.178429 -0.000017 -2.700068
      ESP Fit Center  471 is at   0.524853 -1.193671  2.450996
      ESP Fit Center  472 is at   0.008230 -2.088488  2.245470
      ESP Fit Center  473 is at   1.041476 -2.088488  2.245470
      ESP Fit Center  474 is at   0.253147 -3.083427  1.660184
      ESP Fit Center  475 is at   1.079926 -3.625604  0.784241
      ESP Fit Center  476 is at   1.041476 -0.298855 -2.743479
      ESP Fit Center  477 is at   0.008230 -0.298855 -2.743479
      ESP Fit Center  478 is at  -0.508392 -1.193671 -2.743479
      ESP Fit Center  479 is at   0.008230 -2.088488 -2.743479
      ESP Fit Center  480 is at   1.041476 -2.088488 -2.743479
      ESP Fit Center  481 is at   0.524853 -1.193671 -2.949004
      ESP Fit Center  482 is at   1.915989 -1.186601  2.447857
      ESP Fit Center  483 is at   1.399366 -2.081418  2.242331
      ESP Fit Center  484 is at   2.432612 -2.081418  2.242331
      ESP Fit Center  485 is at   1.644283 -3.076357  1.657045
      ESP Fit Center  486 is at   2.709094 -2.923260  1.657045
      ESP Fit Center  487 is at   3.522100 -2.218786  1.657045
      ESP Fit Center  488 is at   1.360916 -3.618534  0.781102
      ESP Fit Center  489 is at   3.825177 -1.186601 -2.161332
      ESP Fit Center  490 is at   2.949234 -1.186601 -2.746618
      ESP Fit Center  491 is at   2.432612 -0.291785 -2.746618
      ESP Fit Center  492 is at   1.399366 -0.291785 -2.746618
      ESP Fit Center  493 is at   1.399366 -2.081418 -2.746618
      ESP Fit Center  494 is at   2.432612 -2.081418 -2.746618
      ESP Fit Center  495 is at   1.915989 -1.186601 -2.952143
      ESP Fit Center  496 is at   2.610903  0.000030  2.700054
      ESP Fit Center  497 is at   3.644149  0.000030  2.494529
      ESP Fit Center  498 is at   2.094281 -0.894787  2.494529
      ESP Fit Center  499 is at   3.127526 -0.894787  2.494529
      ESP Fit Center  500 is at   4.217015  1.032215  1.909242
      ESP Fit Center  501 is at   4.217015 -1.032155  1.909242
      ESP Fit Center  502 is at   4.166183 -1.950229  1.033299
      ESP Fit Center  503 is at   4.166183  1.950289 -1.033191
      ESP Fit Center  504 is at   4.217015  1.032215 -1.909134
      ESP Fit Center  505 is at   4.217015 -1.032155 -1.909134
      ESP Fit Center  506 is at   3.644149  0.000030 -2.494421
      ESP Fit Center  507 is at   3.127526  0.894847 -2.494421
      ESP Fit Center  508 is at   2.094281  0.894847 -2.494421
      ESP Fit Center  509 is at   2.610903  0.000030 -2.699946
      ESP Fit Center  510 is at   1.915934  1.186644  2.952165
      ESP Fit Center  511 is at   2.949179  1.186644  2.746640
      ESP Fit Center  512 is at   2.432556  2.081460  2.746640
      ESP Fit Center  513 is at   1.399311  2.081460  2.746640
      ESP Fit Center  514 is at   1.399311  0.291827  2.746640
      ESP Fit Center  515 is at   2.432556  0.291827  2.746640
      ESP Fit Center  516 is at   3.825122  1.186644  2.161354
      ESP Fit Center  517 is at   1.360861  3.618577 -0.781080
      ESP Fit Center  518 is at   3.522045  2.218829 -1.657023
      ESP Fit Center  519 is at   2.709039  2.923302 -1.657023
      ESP Fit Center  520 is at   1.644228  3.076399 -1.657023
      ESP Fit Center  521 is at   2.432556  2.081460 -2.242309
      ESP Fit Center  522 is at   1.399311  2.081460 -2.242309
      ESP Fit Center  523 is at   1.915934  1.186644 -2.447835
      ESP Fit Center  524 is at   0.524794  1.193657  2.948928
      ESP Fit Center  525 is at   1.041417  2.088474  2.743403
      ESP Fit Center  526 is at   0.008171  2.088474  2.743403
      ESP Fit Center  527 is at  -0.508451  1.193657  2.743403
      ESP Fit Center  528 is at   0.008171  0.298841  2.743403
      ESP Fit Center  529 is at   1.041417  0.298841  2.743403
      ESP Fit Center  530 is at   1.079867  3.625590 -0.784317
      ESP Fit Center  531 is at   0.253088  3.083413 -1.660260
      ESP Fit Center  532 is at   1.041417  2.088474 -2.245546
      ESP Fit Center  533 is at   0.008171  2.088474 -2.245546
      ESP Fit Center  534 is at   0.524794  1.193657 -2.451072
      ESP Fit Center  535 is at  -4.397769 -1.140772  2.270124
      ESP Fit Center  536 is at  -4.542761  0.272944  1.479509
      ESP Fit Center  537 is at  -5.112611 -0.613759  1.479509
      ESP Fit Center  538 is at  -5.112611 -1.667785  1.479509
      ESP Fit Center  539 is at  -4.542761 -2.554488  1.479509
      ESP Fit Center  540 is at  -5.415003 -0.623850  0.399509
      ESP Fit Center  541 is at  -5.415003 -1.657694  0.399509
      ESP Fit Center  542 is at  -4.934552 -2.573117  0.399509
      ESP Fit Center  543 is at  -4.083715 -3.160407  0.399509
      ESP Fit Center  544 is at  -5.112611 -0.613759 -0.680491
      ESP Fit Center  545 is at  -5.112611 -1.667785 -0.680491
      ESP Fit Center  546 is at  -4.542761 -2.554488 -0.680491
      ESP Fit Center  547 is at  -4.397769 -1.140772 -1.471105
      ESP Fit Center  548 is at  -1.815225 -1.785336  3.117359
      ESP Fit Center  549 is at  -0.735225 -1.785336  2.827973
      ESP Fit Center  550 is at  -2.355225 -2.720643  2.827973
      ESP Fit Center  551 is at  -1.275225 -2.720643  2.827973
      ESP Fit Center  552 is at  -3.040217 -3.199052  2.037359
      ESP Fit Center  553 is at  -2.081441 -3.636910  2.037359
      ESP Fit Center  554 is at  -1.038144 -3.486907  2.037359
      ESP Fit Center  555 is at  -0.241564 -2.796667  2.037359
      ESP Fit Center  556 is at  -2.581172 -3.804971  0.957359
      ESP Fit Center  557 is at  -1.554866 -3.929587  0.957359
      ESP Fit Center  558 is at  -0.275127 -3.960778  0.591893
      ESP Fit Center  559 is at   0.768170 -3.810774  0.591893
      ESP Fit Center  560 is at  -1.625694 -3.541548 -0.488107
      ESP Fit Center  561 is at  -0.774858 -4.128838 -0.488107
      ESP Fit Center  562 is at   0.251448 -4.253454 -0.488107
      ESP Fit Center  563 is at   1.218109 -3.886848 -0.488107
      ESP Fit Center  564 is at  -1.233903 -3.522920 -1.568107
      ESP Fit Center  565 is at  -0.275127 -3.960778 -1.568107
      ESP Fit Center  566 is at   0.768170 -3.810774 -1.568107
      ESP Fit Center  567 is at  -1.088911 -2.109203 -2.358721
      ESP Fit Center  568 is at  -0.548911 -3.044511 -2.358721
      ESP Fit Center  569 is at   0.531089 -3.044511 -2.358721
      ESP Fit Center  570 is at   2.997938 -3.038490  1.409345
      ESP Fit Center  571 is at   4.328553 -2.103183  0.618730
      ESP Fit Center  572 is at   2.191722 -3.954757  0.618730
      ESP Fit Center  573 is at   3.235019 -3.804754  0.618730
      ESP Fit Center  574 is at   4.031599 -3.114513  0.618730
      ESP Fit Center  575 is at   4.617938 -2.103183 -0.461270
      ESP Fit Center  576 is at   1.691991 -4.122818 -0.461270
      ESP Fit Center  577 is at   2.718297 -4.247434 -0.461270
      ESP Fit Center  578 is at   3.684958 -3.880828 -0.461270
      ESP Fit Center  579 is at   4.370523 -3.106985 -0.461270
      ESP Fit Center  580 is at   4.328553 -2.103183 -1.541270
      ESP Fit Center  581 is at   2.191722 -3.954757 -1.541270
      ESP Fit Center  582 is at   3.235019 -3.804754 -1.541270
      ESP Fit Center  583 is at   4.031599 -3.114513 -1.541270
      ESP Fit Center  584 is at   3.537938 -2.103183 -2.331885
      ESP Fit Center  585 is at   1.917938 -3.038490 -2.331885
      ESP Fit Center  586 is at   2.997938 -3.038490 -2.331885
      ESP Fit Center  587 is at   4.776549  0.000041  1.870736
      ESP Fit Center  588 is at   5.567164  0.000041  1.080122
      ESP Fit Center  589 is at   5.270210  1.011372  1.080122
      ESP Fit Center  590 is at   4.473630 -1.701530  1.080122
      ESP Fit Center  591 is at   5.270210 -1.011289  1.080122
      ESP Fit Center  592 is at   5.856549  0.000041  0.000122
      ESP Fit Center  593 is at   5.609134  1.003843  0.000122
      ESP Fit Center  594 is at   4.923569  1.777686  0.000122
      ESP Fit Center  595 is at   4.923569 -1.777604  0.000122
      ESP Fit Center  596 is at   5.609134 -1.003761  0.000122
      ESP Fit Center  597 is at   5.567164  0.000041 -1.079878
      ESP Fit Center  598 is at   5.270210  1.011372 -1.079878
      ESP Fit Center  599 is at   4.473630  1.701612 -1.079878
      ESP Fit Center  600 is at   5.270210 -1.011289 -1.079878
      ESP Fit Center  601 is at   4.776549  0.000041 -1.870493
      ESP Fit Center  602 is at   3.537836  2.103256  2.331890
      ESP Fit Center  603 is at   2.997836  3.038563  2.331890
      ESP Fit Center  604 is at   1.917836  3.038563  2.331890
      ESP Fit Center  605 is at   4.328451  2.103256  1.541275
      ESP Fit Center  606 is at   4.031498  3.114587  1.541275
      ESP Fit Center  607 is at   3.234918  3.804827  1.541275
      ESP Fit Center  608 is at   2.191620  3.954831  1.541275
      ESP Fit Center  609 is at   4.617836  2.103256  0.461275
      ESP Fit Center  610 is at   4.370421  3.107058  0.461275
      ESP Fit Center  611 is at   3.684856  3.880901  0.461275
      ESP Fit Center  612 is at   2.718195  4.247507  0.461275
      ESP Fit Center  613 is at   1.691890  4.122891  0.461275
      ESP Fit Center  614 is at   4.328451  2.103256 -0.618725
      ESP Fit Center  615 is at   4.031498  3.114587 -0.618725
      ESP Fit Center  616 is at   3.234918  3.804827 -0.618725
      ESP Fit Center  617 is at   2.191620  3.954831 -0.618725
      ESP Fit Center  618 is at   2.997836  3.038563 -1.409340
      ESP Fit Center  619 is at   0.530991  3.044509  2.358509
      ESP Fit Center  620 is at  -0.549009  3.044509  2.358509
      ESP Fit Center  621 is at  -1.089009  2.109201  2.358509
      ESP Fit Center  622 is at   0.768073  3.810772  1.567894
      ESP Fit Center  623 is at  -0.275225  3.960776  1.567894
      ESP Fit Center  624 is at  -1.234001  3.522918  1.567894
      ESP Fit Center  625 is at   1.218011  3.886846  0.487894
      ESP Fit Center  626 is at   0.251351  4.253452  0.487894
      ESP Fit Center  627 is at  -0.774955  4.128836  0.487894
      ESP Fit Center  628 is at  -1.625792  3.541546  0.487894
      ESP Fit Center  629 is at   0.768073  3.810772 -0.592106
      ESP Fit Center  630 is at  -0.275225  3.960776 -0.592106
      ESP Fit Center  631 is at  -2.309991 -1.055314  3.462057
      ESP Fit Center  632 is at  -1.283930 -1.055314  3.281135
      ESP Fit Center  633 is at  -1.796961 -0.166719  3.281135
      ESP Fit Center  634 is at  -2.823021 -0.166719  3.281135
      ESP Fit Center  635 is at  -3.336051 -1.055314  3.281135
      ESP Fit Center  636 is at  -2.823021 -1.943908  3.281135
      ESP Fit Center  637 is at  -2.584425  0.853421  2.760190
      ESP Fit Center  638 is at  -3.572800  0.402046  2.760190
      ESP Fit Center  639 is at  -4.160241 -0.512031  2.760190
      ESP Fit Center  640 is at  -4.160241 -1.598596  2.760190
      ESP Fit Center  641 is at  -3.572800 -2.512673  2.760190
      ESP Fit Center  642 is at  -4.411879  0.471797  1.962057
      ESP Fit Center  643 is at  -3.609029 -3.305314  1.962057
      ESP Fit Center  644 is at  -4.090429 -3.412994  0.983002
      ESP Fit Center  645 is at  -3.118507 -3.896954  0.983002
      ESP Fit Center  646 is at  -4.090429 -3.412994 -0.058888
      ESP Fit Center  647 is at  -3.118507 -3.896954 -0.058888
      ESP Fit Center  648 is at  -2.037391 -3.997134 -0.058888
      ESP Fit Center  649 is at  -3.609029 -3.305314 -1.037943
      ESP Fit Center  650 is at  -2.581564 -3.639157 -1.037943
      ESP Fit Center  651 is at  -4.160241 -1.598596 -1.836076
      ESP Fit Center  652 is at  -3.572800 -2.512673 -1.836076
      ESP Fit Center  653 is at  -2.584425 -2.964049 -1.836076
      ESP Fit Center  654 is at  -3.336051 -1.055314 -2.357021
      ESP Fit Center  655 is at  -2.823021 -1.943908 -2.357021
      ESP Fit Center  656 is at  -1.796961 -1.943908 -2.357021
      ESP Fit Center  657 is at  -1.132329  0.888577  2.819042
      ESP Fit Center  658 is at  -2.158389  0.888577  2.819042
      ESP Fit Center  659 is at  -2.158389 -0.888612 -2.819114
      ESP Fit Center  660 is at  -1.132329 -0.888612 -2.819114
      ESP Fit Center  661 is at  -1.797023  1.943875  2.357086
      ESP Fit Center  662 is at  -2.823083  1.943875  2.357086
      ESP Fit Center  663 is at  -3.336113  1.055281  2.357086
      ESP Fit Center  664 is at  -2.584488  2.964016  1.836142
      ESP Fit Center  665 is at  -3.572862  2.512640  1.836142
      ESP Fit Center  666 is at  -4.160304  1.598564  1.836142
      ESP Fit Center  667 is at  -2.581626  3.639125  1.038008
      ESP Fit Center  668 is at  -3.609091  3.305281  1.038008
      ESP Fit Center  669 is at  -2.037453  3.997101  0.058953
      ESP Fit Center  670 is at  -3.118569  3.896921  0.058953
      ESP Fit Center  671 is at  -4.090491  3.412962  0.058953
      ESP Fit Center  672 is at  -3.118569  3.896921 -0.982936
      ESP Fit Center  673 is at  -4.090491  3.412962 -0.982936
      ESP Fit Center  674 is at  -3.609091  3.305281 -1.961992
      ESP Fit Center  675 is at  -4.411941 -0.471830 -1.961992
      ESP Fit Center  676 is at  -3.572862  2.512640 -2.760125
      ESP Fit Center  677 is at  -4.160304  1.598564 -2.760125
      ESP Fit Center  678 is at  -4.160304  0.511998 -2.760125
      ESP Fit Center  679 is at  -3.572862 -0.402078 -2.760125
      ESP Fit Center  680 is at  -2.584488 -0.853454 -2.760125
      ESP Fit Center  681 is at  -1.283993  1.055281 -3.281069
      ESP Fit Center  682 is at  -2.823083  1.943875 -3.281069
      ESP Fit Center  683 is at  -3.336113  1.055281 -3.281069
      ESP Fit Center  684 is at  -2.823083  0.166687 -3.281069
      ESP Fit Center  685 is at  -1.797023  0.166687 -3.281069
      ESP Fit Center  686 is at  -2.310053  1.055281 -3.461992
      ESP Fit Center  687 is at  -1.294734  4.066509 -0.423288
      ESP Fit Center  688 is at  -2.336055  4.066509 -0.423288
      ESP Fit Center  689 is at  -0.356536  3.614697 -1.491389
      ESP Fit Center  690 is at  -1.294734  4.066509 -1.491389
      ESP Fit Center  691 is at  -2.336055  4.066509 -1.491389
      ESP Fit Center  692 is at  -0.236870  2.799803 -2.453714
      ESP Fit Center  693 is at  -1.035911  3.492176 -2.453714
      ESP Fit Center  694 is at  -2.082433  3.642643 -2.453714
      ESP Fit Center  695 is at  -3.044172  3.203432 -2.453714
      ESP Fit Center  696 is at  -0.774073  1.785347 -3.119664
[...]
  166 Fit       0.112127
  167 Fit       0.121423
  168 Fit       0.115257
  169 Fit       0.111310
  170 Fit       0.114548
  171 Fit       0.126211
  172 Fit       0.117982
  173 Fit       0.111423
  174 Fit       0.114289
  175 Fit       0.126320
  176 Fit       0.113893
  177 Fit       0.111654
  178 Fit       0.127952
  179 Fit       0.128301
  180 Fit       0.136677
  181 Fit       0.146335
  182 Fit       0.138552
  183 Fit       0.132428
  184 Fit       0.140922
  185 Fit       0.152895
  186 Fit       0.136810
  187 Fit       0.153867
  188 Fit       0.141601
  189 Fit       0.137731
  190 Fit       0.138645
  191 Fit       0.135834
  192 Fit       0.139228
  193 Fit       0.146658
  194 Fit       0.152515
  195 Fit       0.153431
  196 Fit       0.146035
  197 Fit       0.145034
  198 Fit       0.137148
  199 Fit       0.155154
  200 Fit       0.138829
  201 Fit       0.142792
  202 Fit       0.144048
  203 Fit       0.146161
  204 Fit       0.146160
  205 Fit       0.144049
  206 Fit       0.142789
  207 Fit       0.138832
  208 Fit       0.155160
  209 Fit       0.137152
  210 Fit       0.145042
  211 Fit       0.146041
  212 Fit       0.153432
  213 Fit       0.152509
  214 Fit       0.146660
  215 Fit       0.139226
  216 Fit       0.135834
  217 Fit       0.138649
  218 Fit       0.137733
  219 Fit       0.154954
  220 Fit       0.150320
  221 Fit       0.153018
  222 Fit       0.149680
  223 Fit       0.148425
  224 Fit       0.148606
  225 Fit       0.145772
  226 Fit       0.145794
  227 Fit       0.146355
  228 Fit       0.143988
  229 Fit       0.149999
  230 Fit       0.161588
  231 Fit       0.148182
  232 Fit       0.150912
  233 Fit       0.160575
  234 Fit       0.150337
  235 Fit       0.150815
  236 Fit       0.157339
  237 Fit       0.173648
  238 Fit       0.156362
  239 Fit       0.150383
  240 Fit       0.153442
  241 Fit       0.163386
  242 Fit       0.150242
  243 Fit       0.125621
  244 Fit       0.122650
  245 Fit       0.122647
  246 Fit       0.125619
  247 Fit       0.120157
  248 Fit       0.141170
  249 Fit       0.113976
  250 Fit       0.135687
  251 Fit       0.107201
  252 Fit       0.121156
  253 Fit       0.127833
  254 Fit       0.121218
  255 Fit       0.111951
  256 Fit       0.111161
  257 Fit       0.101903
  258 Fit       0.108887
  259 Fit       0.100903
  260 Fit       0.113032
  261 Fit       0.105124
  262 Fit       0.107886
  263 Fit       0.099859
  264 Fit       0.098659
  265 Fit       0.103961
  266 Fit       0.109290
  267 Fit       0.104151
  268 Fit       0.100341
  269 Fit       0.098165
  270 Fit       0.099427
  271 Fit       0.100936
  272 Fit       0.098254
  273 Fit       0.099425
  274 Fit       0.098253
  275 Fit       0.100935
  276 Fit       0.098164
  277 Fit       0.100341
  278 Fit       0.099859
  279 Fit       0.104150
  280 Fit       0.109289
  281 Fit       0.103962
  282 Fit       0.098660
  283 Fit       0.107889
  284 Fit       0.105123
  285 Fit       0.113034
  286 Fit       0.100902
  287 Fit       0.108888
  288 Fit       0.101903
  289 Fit       0.111161
  290 Fit       0.111950
  291 Fit       0.121216
  292 Fit       0.127833
  293 Fit       0.121157
  294 Fit       0.107202
  295 Fit       0.135688
  296 Fit       0.113976
  297 Fit       0.141167
  298 Fit       0.120156
  299 Fit       0.150242
  300 Fit       0.163388
  301 Fit       0.153442
  302 Fit       0.150382
  303 Fit       0.156357
  304 Fit       0.173650
  305 Fit       0.157339
  306 Fit       0.150813
  307 Fit       0.150334
  308 Fit       0.160575
  309 Fit       0.150910
  310 Fit       0.148178
  311 Fit       0.161587
  312 Fit       0.149996
  313 Fit       0.143987
  314 Fit       0.145769
  315 Fit       0.146354
  316 Fit       0.145792
  317 Fit       0.148604
  318 Fit       0.148422
  319 Fit       0.149676
  320 Fit       0.153016
  321 Fit       0.150317
  322 Fit       0.154949
  323 Fit       0.142845
  324 Fit       0.129037
  325 Fit       0.138009
  326 Fit       0.127378
  327 Fit       0.126365
  328 Fit       0.136124
  329 Fit       0.126425
  330 Fit       0.122297
  331 Fit       0.132983
  332 Fit       0.124280
  333 Fit       0.119665
  334 Fit       0.121375
  335 Fit       0.105089
  336 Fit       0.110704
  337 Fit       0.114162
  338 Fit       0.105679
  339 Fit       0.104103
  340 Fit       0.110445
  341 Fit       0.122027
  342 Fit       0.109286
  343 Fit       0.104207
  344 Fit       0.103972
  345 Fit       0.106470
  346 Fit       0.113312
  347 Fit       0.105352
  348 Fit       0.103179
  349 Fit       0.103430
  350 Fit       0.110393
  351 Fit       0.104120
  352 Fit       0.101269
  353 Fit       0.106417
  354 Fit       0.102579
  355 Fit       0.100392
  356 Fit       0.103646
  357 Fit       0.108510
  358 Fit       0.101840
  359 Fit       0.100205
  360 Fit       0.102066
  361 Fit       0.109689
  362 Fit       0.109690
  363 Fit       0.102066
  364 Fit       0.100392
  365 Fit       0.101839
  366 Fit       0.108510
  367 Fit       0.103647
  368 Fit       0.101269
  369 Fit       0.102579
  370 Fit       0.106418
  371 Fit       0.103431
  372 Fit       0.104120
  373 Fit       0.110392
  374 Fit       0.106471
  375 Fit       0.103179
  376 Fit       0.105352
  377 Fit       0.113311
  378 Fit       0.110447
  379 Fit       0.103973
  380 Fit       0.104208
  381 Fit       0.109286
  382 Fit       0.122027
  383 Fit       0.110703
  384 Fit       0.104104
  385 Fit       0.105680
  386 Fit       0.114163
  387 Fit       0.105090
  388 Fit       0.121377
  389 Fit       0.119667
  390 Fit       0.124282
  391 Fit       0.132985
  392 Fit       0.122299
  393 Fit       0.126428
  394 Fit       0.136127
  395 Fit       0.126367
  396 Fit       0.127380
  397 Fit       0.138013
  398 Fit       0.129039
  399 Fit       0.142848
  400 Fit       0.129233
  401 Fit       0.134745
  402 Fit       0.130161
  403 Fit       0.128346
  404 Fit       0.129731
  405 Fit       0.134237
  406 Fit       0.138520
  407 Fit       0.139236
  408 Fit       0.138998
  409 Fit       0.138573
  410 Fit       0.142482
  411 Fit       0.138829
  412 Fit       0.138008
  413 Fit       0.132852
  414 Fit       0.140790
  415 Fit       0.133996
  416 Fit       0.129410
  417 Fit       0.143922
  418 Fit       0.132469
  419 Fit       0.135863
  420 Fit       0.133847
  421 Fit       0.136233
  422 Fit       0.136232
  423 Fit       0.133848
  424 Fit       0.135860
  425 Fit       0.132471
  426 Fit       0.143926
  427 Fit       0.129413
  428 Fit       0.134002
  429 Fit       0.140793
  430 Fit       0.132857
  431 Fit       0.138014
  432 Fit       0.138833
  433 Fit       0.142483
  434 Fit       0.138574
  435 Fit       0.138994
  436 Fit       0.139231
  437 Fit       0.138516
  438 Fit       0.134748
  439 Fit       0.134239
  440 Fit       0.129729
  441 Fit       0.128346
  442 Fit       0.130164
  443 Fit       0.129235
  444 Fit       0.139685
  445 Fit       0.139963
  446 Fit       0.138442
  447 Fit       0.137115
  448 Fit       0.136489
  449 Fit       0.140769
  450 Fit       0.135211
  451 Fit       0.134522
  452 Fit       0.135388
  453 Fit       0.134007
  454 Fit       0.150616
  455 Fit       0.138201
  456 Fit       0.143197
  457 Fit       0.157141
  458 Fit       0.140549
  459 Fit       0.138118
  460 Fit       0.141322
  461 Fit       0.150892
  462 Fit       0.139574
  463 Fit       0.139407
  464 Fit       0.145445
  465 Fit       0.157791
  466 Fit       0.139711
  467 Fit       0.121050
  468 Fit       0.118985
  469 Fit       0.118981
  470 Fit       0.121048
  471 Fit       0.117043
  472 Fit       0.133418
  473 Fit       0.111039
  474 Fit       0.128657
  475 Fit       0.119264
  476 Fit       0.104887
  477 Fit       0.116791
  478 Fit       0.120750
  479 Fit       0.114081
  480 Fit       0.106498
  481 Fit       0.107511
  482 Fit       0.100197
  483 Fit       0.106266
  484 Fit       0.097842
  485 Fit       0.107416
  486 Fit       0.099975
  487 Fit       0.098401
  488 Fit       0.116393
  489 Fit       0.099645
  490 Fit       0.095610
  491 Fit       0.096118
  492 Fit       0.101815
  493 Fit       0.104094
  494 Fit       0.098706
  495 Fit       0.097642
  496 Fit       0.095645
  497 Fit       0.094627
  498 Fit       0.098882
  499 Fit       0.094678
  500 Fit       0.100665
  501 Fit       0.096762
  502 Fit       0.103754
  503 Fit       0.103753
  504 Fit       0.096761
  505 Fit       0.100664
  506 Fit       0.094626
  507 Fit       0.094677
  508 Fit       0.098881
  509 Fit       0.095645
  510 Fit       0.097642
  511 Fit       0.095611
  512 Fit       0.098705
  513 Fit       0.104093
  514 Fit       0.101815
  515 Fit       0.096119
  516 Fit       0.099647
  517 Fit       0.116395
  518 Fit       0.098400
  519 Fit       0.099976
  520 Fit       0.107417
  521 Fit       0.097841
  522 Fit       0.106266
  523 Fit       0.100196
  524 Fit       0.107511
  525 Fit       0.106498
  526 Fit       0.114080
  527 Fit       0.120750
  528 Fit       0.116793
  529 Fit       0.104888
  530 Fit       0.119265
  531 Fit       0.128658
  532 Fit       0.111038
  533 Fit       0.133416
  534 Fit       0.117042
  535 Fit       0.139710
  536 Fit       0.157793
  537 Fit       0.145446
  538 Fit       0.139406
  539 Fit       0.139571
  540 Fit       0.150893
  541 Fit       0.141321
  542 Fit       0.138117
  543 Fit       0.140545
  544 Fit       0.157142
  545 Fit       0.143196
  546 Fit       0.138199
  547 Fit       0.150616
  548 Fit       0.134006
  549 Fit       0.135208
  550 Fit       0.135387
  551 Fit       0.134520
  552 Fit       0.140770
  553 Fit       0.136488
  554 Fit       0.137113
  555 Fit       0.138438
  556 Fit       0.139961
  557 Fit       0.139682
  558 Fit       0.130301
  559 Fit       0.121620
  560 Fit       0.141747
  561 Fit       0.126523
  562 Fit       0.118937
  563 Fit       0.120748
  564 Fit       0.125429
  565 Fit       0.117385
  566 Fit       0.115633
  567 Fit       0.127633
  568 Fit       0.117868
  569 Fit       0.113424
  570 Fit       0.100502
  571 Fit       0.105289
  572 Fit       0.106025
  573 Fit       0.099200
  574 Fit       0.098491
  575 Fit       0.104660
  576 Fit       0.111729
  577 Fit       0.101568
  578 Fit       0.097499
  579 Fit       0.097912
  580 Fit       0.100765
  581 Fit       0.104680
  582 Fit       0.098351
  583 Fit       0.097032
  584 Fit       0.098322
  585 Fit       0.105631
  586 Fit       0.098592
  587 Fit       0.095845
  588 Fit       0.094141
  589 Fit       0.097037
  590 Fit       0.101579
  591 Fit       0.095544
  592 Fit       0.093668
  593 Fit       0.095417
  594 Fit       0.102103
  595 Fit       0.102103
  596 Fit       0.095417
  597 Fit       0.094142
  598 Fit       0.095544
  599 Fit       0.101579
  600 Fit       0.097037
  601 Fit       0.095845
  602 Fit       0.098323
  603 Fit       0.098592
  604 Fit       0.105630
  605 Fit       0.100767
  606 Fit       0.097033
  607 Fit       0.098352
  608 Fit       0.104679
  609 Fit       0.104661
  610 Fit       0.097912
  611 Fit       0.097499
  612 Fit       0.101568
  613 Fit       0.111729
  614 Fit       0.105288
  615 Fit       0.098491
  616 Fit       0.099201
  617 Fit       0.106026
  618 Fit       0.100502
  619 Fit       0.113426
  620 Fit       0.117870
  621 Fit       0.127635
  622 Fit       0.115635
  623 Fit       0.117387
  624 Fit       0.125433
  625 Fit       0.120750
  626 Fit       0.118939
  627 Fit       0.126526
  628 Fit       0.141754
  629 Fit       0.121621
  630 Fit       0.130303
  631 Fit       0.121362
  632 Fit       0.125054
  633 Fit       0.122472
  634 Fit       0.121141
  635 Fit       0.121423
  636 Fit       0.124105
  637 Fit       0.128712
  638 Fit       0.127763
  639 Fit       0.127311
  640 Fit       0.126656
  641 Fit       0.126837
  642 Fit       0.141892
  643 Fit       0.129971
  644 Fit       0.130720
  645 Fit       0.130181
  646 Fit       0.129177
  647 Fit       0.126534
  648 Fit       0.131418
  649 Fit       0.124615
  650 Fit       0.124088
  651 Fit       0.135632
  652 Fit       0.125389
  653 Fit       0.122667
  654 Fit       0.134572
  655 Fit       0.126030
  656 Fit       0.128816
  657 Fit       0.125625
  658 Fit       0.127859
  659 Fit       0.127857
  660 Fit       0.125625
  661 Fit       0.128814
  662 Fit       0.126031
  663 Fit       0.134574
  664 Fit       0.122669
  665 Fit       0.125393
  666 Fit       0.135637
  667 Fit       0.124091
  668 Fit       0.124619
  669 Fit       0.131421
  670 Fit       0.126538
  671 Fit       0.129181
  672 Fit       0.130185
  673 Fit       0.130722
  674 Fit       0.129973
  675 Fit       0.141885
  676 Fit       0.126837
  677 Fit       0.126654
  678 Fit       0.127308
  679 Fit       0.127760
  680 Fit       0.128712
  681 Fit       0.125057
  682 Fit       0.124106
  683 Fit       0.121422
  684 Fit       0.121141
  685 Fit       0.122474
  686 Fit       0.121363
  687 Fit       0.133818
  688 Fit       0.131224
  689 Fit       0.132457
  690 Fit       0.129064
  691 Fit       0.128583
  692 Fit       0.127921
  693 Fit       0.126664
  694 Fit       0.126397
  695 Fit       0.129852
  696 Fit       0.126325
  697 Fit       0.125183
  698 Fit       0.126047
  699 Fit       0.125709
  700 Fit       0.141579
  701 Fit       0.129676
  702 Fit       0.134352
  703 Fit       0.147392
  704 Fit       0.128486
  705 Fit       0.130032
  706 Fit       0.136460
  707 Fit       0.151464
  708 Fit       0.129175
  709 Fit       0.129036
  710 Fit       0.133466
  711 Fit       0.143831
  712 Fit       0.130539
  713 Fit       0.129636
  714 Fit       0.134222
  715 Fit       0.116301
  716 Fit       0.114790
  717 Fit       0.114787
  718 Fit       0.116299
  719 Fit       0.113408
  720 Fit       0.125987
  721 Fit       0.107792
  722 Fit       0.122127
  723 Fit       0.122016
  724 Fit       0.126738
  725 Fit       0.102217
  726 Fit       0.112245
  727 Fit       0.114575
  728 Fit       0.108205
  729 Fit       0.101828
  730 Fit       0.103813
  731 Fit       0.098126
  732 Fit       0.103411
  733 Fit       0.095024
  734 Fit       0.102969
  735 Fit       0.095349
  736 Fit       0.093460
  737 Fit       0.106224
  738 Fit       0.096713
  739 Fit       0.093602
  740 Fit       0.102854
  741 Fit       0.091928
  742 Fit       0.093496
  743 Fit       0.099340
  744 Fit       0.099628
  745 Fit       0.094276
  746 Fit       0.094807
  747 Fit       0.093118
  748 Fit       0.090722
  749 Fit       0.096571
  750 Fit       0.091529
  751 Fit       0.091714
  752 Fit       0.094275
  753 Fit       0.093279
  754 Fit       0.091230
  755 Fit       0.095467
  756 Fit       0.095466
  757 Fit       0.091713
  758 Fit       0.091228
  759 Fit       0.093279
  760 Fit       0.094275
  761 Fit       0.090721
  762 Fit       0.091529
  763 Fit       0.096571
  764 Fit       0.093118
  765 Fit       0.094807
  766 Fit       0.091928
  767 Fit       0.094275
  768 Fit       0.099627
  769 Fit       0.099340
  770 Fit       0.093496
  771 Fit       0.093603
  772 Fit       0.102852
  773 Fit       0.096712
  774 Fit       0.106226
  775 Fit       0.093459
  776 Fit       0.095349
  777 Fit       0.102970
  778 Fit       0.095024
  779 Fit       0.103411
  780 Fit       0.098126
  781 Fit       0.103813
  782 Fit       0.101829
  783 Fit       0.108205
  784 Fit       0.114576
  785 Fit       0.112246
  786 Fit       0.102218
  787 Fit       0.126738
  788 Fit       0.122018
  789 Fit       0.122126
  790 Fit       0.107792
  791 Fit       0.125985
  792 Fit       0.113407
  793 Fit       0.134222
  794 Fit       0.129634
  795 Fit       0.130536
  796 Fit       0.143832
  797 Fit       0.133466
  798 Fit       0.129035
  799 Fit       0.129173
  800 Fit       0.151467
  801 Fit       0.136460
  802 Fit       0.130031
  803 Fit       0.128484
  804 Fit       0.147393
  805 Fit       0.134351
  806 Fit       0.129675
  807 Fit       0.141579
  808 Fit       0.125708
  809 Fit       0.126322
  810 Fit       0.126047
  811 Fit       0.125182
  812 Fit       0.129853
  813 Fit       0.126396
  814 Fit       0.126662
  815 Fit       0.127918
  816 Fit       0.128581
  817 Fit       0.129061
  818 Fit       0.132453
  819 Fit       0.131222
  820 Fit       0.133816
  821 Fit       0.127083
  822 Fit       0.120552
  823 Fit       0.113990
  824 Fit       0.123948
  825 Fit       0.114537
  826 Fit       0.110778
  827 Fit       0.117523
  828 Fit       0.110550
  829 Fit       0.108966
  830 Fit       0.120843
  831 Fit       0.112067
  832 Fit       0.108068
  833 Fit       0.101680
  834 Fit       0.094962
  835 Fit       0.094164
  836 Fit       0.103598
  837 Fit       0.095494
  838 Fit       0.092369
  839 Fit       0.093411
  840 Fit       0.098041
  841 Fit       0.102616
  842 Fit       0.094932
  843 Fit       0.091837
  844 Fit       0.092483
  845 Fit       0.094964
  846 Fit       0.099293
  847 Fit       0.093356
  848 Fit       0.091995
  849 Fit       0.094245
  850 Fit       0.091778
  851 Fit       0.089433
  852 Fit       0.092298
  853 Fit       0.090678
  854 Fit       0.088404
  855 Fit       0.090195
  856 Fit       0.096314
  857 Fit       0.094763
  858 Fit       0.089714
  859 Fit       0.088404
  860 Fit       0.089713
  861 Fit       0.094763
  862 Fit       0.096315
  863 Fit       0.090195
  864 Fit       0.089433
  865 Fit       0.090678
  866 Fit       0.092299
  867 Fit       0.091779
  868 Fit       0.094245
  869 Fit       0.094966
  870 Fit       0.091995
  871 Fit       0.093357
  872 Fit       0.099292
  873 Fit       0.098043
  874 Fit       0.092484
  875 Fit       0.091837
  876 Fit       0.094932
  877 Fit       0.102616
  878 Fit       0.093412
  879 Fit       0.092369
  880 Fit       0.095495
  881 Fit       0.103599
  882 Fit       0.094164
  883 Fit       0.094962
  884 Fit       0.101680
  885 Fit       0.108070
  886 Fit       0.112070
  887 Fit       0.120845
  888 Fit       0.108969
  889 Fit       0.110552
  890 Fit       0.117526
  891 Fit       0.110780
  892 Fit       0.114539
  893 Fit       0.123952
  894 Fit       0.113992
  895 Fit       0.120555
  896 Fit       0.127084
 -----------------------------------------------------------------
 Leave Link  602 at Fri Aug 24 15:35:57 2018, MaxMem=   33554432 cpu:       0.2

 Test job not archived.
 1\1\GINC-NODE043\SP\RHF\6-31G(d)\C7H9N2(1+)\WULSDORT\24-Aug-2018\0\\#H
 F/6-31G* Geom=AllCheck Guess=Read Pop=(MK,ReadRadii) Integral=(Grid=Ul
 traFine) iop(6/33=2)\\Optimization for frag44-conf0\\1,1\N,0,1.2373470
 661,0.4345742023,0.1916331676\C,0,2.4623312055,0.0237805945,-0.1239252
 378\N,0,3.100223174,-0.8356861464,0.6655602826\H,0,4.082623245,-1.0241
 747344,0.5158475746\H,0,2.6625014223,-1.2750537918,1.4669269264\C,0,3.
 1101169527,0.518837647,-1.3434240181\C,0,2.8921660892,1.8432267078,-1.
 7675408444\C,0,3.5127305213,2.3084562108,-2.9224347939\C,0,4.341767612
 7,1.4600508535,-3.6623735597\C,0,4.5571110384,0.1426595051,-3.24679907
 67\C,0,3.949118839,-0.3309471747,-2.0886233475\H,0,0.7849349849,0.1936
 791736,1.0657754912\H,0,0.6919108874,0.9569483745,-0.4811769603\H,0,2.
 2838867062,2.519884679,-1.1739055921\H,0,3.3584480415,3.3346607951,-3.
 2397125525\H,0,4.8211245998,1.8263798702,-4.5649507342\H,0,5.190027289
 ,-0.5177969218,-3.8305607956\H,0,4.0860847857,-1.3678193549,-1.7946726
 655\\Version=AM64L-G09RevC.01\State=1-A\HF=-379.0318172\RMSD=5.572e-09
 \Dipole=-0.9873635,-0.7546346,1.8588377\Quadrupole=-2.3225903,-3.82093
 23,6.1435226,-2.3806535,-10.3202794,-9.0219941\PG=C01 [X(C7H9N2)]\\@


 NATURE WILL TELL YOU A DIRECT LIE IF SHE CAN.

                                -- CHARLES DARWIN
 Job cpu time:  0 days  0 hours  0 minutes 47.7 seconds.
 File lengths (MBytes):  RWF=     16 Int=      0 D2E=      0 Chk=      3 Scr=      1
 Normal termination of Gaussian 09 at Fri Aug 24 15:36:03 2018.
