 Entering Gaussian System, Link 0=g09
 Initial command:
 /home/fb_chem/chemsoft/lx24-amd64/Gaussian_09_C.01_NBO_3.1_64_istanbul-64/g09/l1.exe /local/2659143.1.parallel_long/Gau-17551.inp -scrdir=/local/2659143.1.parallel_long/
 Entering Link 1 = /home/fb_chem/chemsoft/lx24-amd64/Gaussian_09_C.01_NBO_3.1_64_istanbul-64/g09/l1.exe PID=     17555.
  
 Copyright (c) 1988,1990,1992,1993,1995,1998,2003,2009,2011,
            Gaussian, Inc.  All Rights Reserved.
  
 This is part of the Gaussian(R) 09 program.  It is based on
 the Gaussian(R) 03 system (copyright 2003, Gaussian, Inc.),
 the Gaussian(R) 98 system (copyright 1998, Gaussian, Inc.),
 the Gaussian(R) 94 system (copyright 1995, Gaussian, Inc.),
 the Gaussian 92(TM) system (copyright 1992, Gaussian, Inc.),
 the Gaussian 90(TM) system (copyright 1990, Gaussian, Inc.),
 the Gaussian 88(TM) system (copyright 1988, Gaussian, Inc.),
 the Gaussian 86(TM) system (copyright 1986, Carnegie Mellon
 University), and the Gaussian 82(TM) system (copyright 1983,
 Carnegie Mellon University). Gaussian is a federally registered
 trademark of Gaussian, Inc.
  
 This software contains proprietary and confidential information,
 including trade secrets, belonging to Gaussian, Inc.
  
 This software is provided under written license and may be
 used, copied, transmitted, or stored only in accord with that
 written license.
  
 The following legend is applicable only to US Government
 contracts under FAR:
  
                    RESTRICTED RIGHTS LEGEND
  
 Use, reproduction and disclosure by the US Government is
 subject to restrictions as set forth in subparagraphs (a)
 and (c) of the Commercial Computer Software - Restricted
 Rights clause in FAR 52.227-19.
  
 Gaussian, Inc.
 340 Quinnipiac St., Bldg. 40, Wallingford CT 06492
  
  
 ---------------------------------------------------------------
 Warning -- This program may not be used in any manner that
 competes with the business of Gaussian, Inc. or will provide
 assistance to any competitor of Gaussian, Inc.  The licensee
 of this program is prohibited from giving any competitor of
 Gaussian, Inc. access to this program.  By using this program,
 the user acknowledges that Gaussian, Inc. is engaged in the
 business of creating and licensing software in the field of
 computational chemistry and represents and warrants to the
 licensee that it is not a competitor of Gaussian, Inc. and that
 it will not use this program in any manner prohibited above.
 ---------------------------------------------------------------
  

 Cite this work as:
 Gaussian 09, Revision C.01,
 M. J. Frisch, G. W. Trucks, H. B. Schlegel, G. E. Scuseria, 
 M. A. Robb, J. R. Cheeseman, G. Scalmani, V. Barone, B. Mennucci, 
 G. A. Petersson, H. Nakatsuji, M. Caricato, X. Li, H. P. Hratchian, 
 A. F. Izmaylov, J. Bloino, G. Zheng, J. L. Sonnenberg, M. Hada, 
 M. Ehara, K. Toyota, R. Fukuda, J. Hasegawa, M. Ishida, T. Nakajima, 
 Y. Honda, O. Kitao, H. Nakai, T. Vreven, J. A. Montgomery, Jr., 
 J. E. Peralta, F. Ogliaro, M. Bearpark, J. J. Heyd, E. Brothers, 
 K. N. Kudin, V. N. Staroverov, T. Keith, R. Kobayashi, J. Normand, 
 K. Raghavachari, A. Rendell, J. C. Burant, S. S. Iyengar, J. Tomasi, 
 M. Cossi, N. Rega, J. M. Millam, M. Klene, J. E. Knox, J. B. Cross, 
 V. Bakken, C. Adamo, J. Jaramillo, R. Gomperts, R. E. Stratmann, 
 O. Yazyev, A. J. Austin, R. Cammi, C. Pomelli, J. W. Ochterski, 
 R. L. Martin, K. Morokuma, V. G. Zakrzewski, G. A. Voth, 
 P. Salvador, J. J. Dannenberg, S. Dapprich, A. D. Daniels, 
 O. Farkas, J. B. Foresman, J. V. Ortiz, J. Cioslowski, 
 and D. J. Fox, Gaussian, Inc., Wallingford CT, 2010.
 
 ******************************************
 Gaussian 09:  AM64L-G09RevC.01 23-Sep-2011
                24-Aug-2018 
 ******************************************
 %nprocs=8
 Will use up to    8 processors via shared memory.
 %chk=frag44-conf0.chk
 ---------------------------------------------------------
 #B3LYP/6-31G* Integral=(Grid=UltraFine) freq Opt pop=none
 ---------------------------------------------------------
 1/14=-1,18=20,19=15,26=3,38=1/1,3;
 2/9=110,12=2,17=6,18=5,40=1/2;
 3/5=1,6=6,7=1,11=2,16=1,25=1,30=1,71=1,74=-5,75=-5/1,2,3;
 4//1;
 5/5=2,38=5/2;
 7//1,2,3,16;
 1/14=-1,18=20,19=15/3(2);
 2/9=110/2;
 99//99;
 2/9=110/2;
 3/5=1,6=6,7=1,11=2,16=1,25=1,30=1,71=1,74=-5,75=-5/1,2,3;
 4/5=5,16=3/1;
 5/5=2,38=5/2;
 7//1,2,3,16;
 1/14=-1,18=20,19=15/3(-5);
 2/9=110/2;
 99/9=1/99;
 -----------------------------
 Optimization for frag44-conf0
 -----------------------------
 Charge =  1 Multiplicity = 1
 Symbolic Z-Matrix:
 N                     1.14422   0.03909  -0.03621 
 C                     2.45652   0.01739  -0.10711 
 N                     3.20215  -0.43261   0.8767 
 H                     4.21375  -0.41827   0.7837 
 H                     2.8145   -0.7826    1.74161 
 C                     3.10622   0.51181  -1.32174 
 C                     3.11948   1.88415  -1.60999 
 C                     3.73295   2.35288  -2.77231 
 C                     4.33182   1.45603  -3.65496 
 C                     4.32383   0.09039  -3.37741 
 C                     3.71613  -0.38216  -2.21353 
 H                     0.63349  -0.29237   0.76984 
 H                     0.60778   0.38092  -0.8283 
 H                     2.66291   2.60283  -0.93162 
 H                     3.74758   3.41865  -2.99431 
 H                     4.80666   1.82307  -4.56341 
 H                     4.79045  -0.60386  -4.07429 
 H                     3.71401  -1.45368  -2.02103 
 

 GradGradGradGradGradGradGradGradGradGradGradGradGradGradGradGradGradGrad
 Berny optimization.
 Initialization pass.
                           ----------------------------
                           !    Initial Parameters    !
                           ! (Angstroms and Degrees)  !
 --------------------------                            --------------------------
 ! Name  Definition              Value          Derivative Info.                !
 --------------------------------------------------------------------------------
 ! R1    R(1,2)                  1.3144         estimate D2E/DX2                !
 ! R2    R(1,12)                 1.0102         estimate D2E/DX2                !
 ! R3    R(1,13)                 1.0159         estimate D2E/DX2                !
 ! R4    R(2,3)                  1.3139         estimate D2E/DX2                !
 ! R5    R(2,6)                  1.4635         estimate D2E/DX2                !
 ! R6    R(3,4)                  1.016          estimate D2E/DX2                !
 ! R7    R(3,5)                  1.0104         estimate D2E/DX2                !
 ! R8    R(6,7)                  1.4024         estimate D2E/DX2                !
 ! R9    R(6,11)                 1.4023         estimate D2E/DX2                !
 ! R10   R(7,8)                  1.3954         estimate D2E/DX2                !
 ! R11   R(7,14)                 1.0886         estimate D2E/DX2                !
 ! R12   R(8,9)                  1.3936         estimate D2E/DX2                !
 ! R13   R(8,15)                 1.0888         estimate D2E/DX2                !
 ! R14   R(9,10)                 1.3936         estimate D2E/DX2                !
 ! R15   R(9,16)                 1.0888         estimate D2E/DX2                !
 ! R16   R(10,11)                1.3954         estimate D2E/DX2                !
 ! R17   R(10,17)                1.0887         estimate D2E/DX2                !
 ! R18   R(11,18)                1.0887         estimate D2E/DX2                !
 ! A1    A(2,1,12)             122.8478         estimate D2E/DX2                !
 ! A2    A(2,1,13)             119.3871         estimate D2E/DX2                !
 ! A3    A(12,1,13)            117.7485         estimate D2E/DX2                !
 ! A4    A(1,2,3)              122.1304         estimate D2E/DX2                !
 ! A5    A(1,2,6)              118.843          estimate D2E/DX2                !
 ! A6    A(3,2,6)              119.0266         estimate D2E/DX2                !
 ! A7    A(2,3,4)              119.4504         estimate D2E/DX2                !
 ! A8    A(2,3,5)              122.812          estimate D2E/DX2                !
 ! A9    A(4,3,5)              117.7282         estimate D2E/DX2                !
 ! A10   A(2,6,7)              120.3576         estimate D2E/DX2                !
 ! A11   A(2,6,11)             120.3654         estimate D2E/DX2                !
 ! A12   A(7,6,11)             119.2762         estimate D2E/DX2                !
 ! A13   A(6,7,8)              120.2722         estimate D2E/DX2                !
 ! A14   A(6,7,14)             120.9294         estimate D2E/DX2                !
 ! A15   A(8,7,14)             118.7958         estimate D2E/DX2                !
 ! A16   A(7,8,9)              120.0226         estimate D2E/DX2                !
 ! A17   A(7,8,15)             120.304          estimate D2E/DX2                !
 ! A18   A(9,8,15)             119.6733         estimate D2E/DX2                !
 ! A19   A(8,9,10)             120.1353         estimate D2E/DX2                !
 ! A20   A(8,9,16)             119.9291         estimate D2E/DX2                !
 ! A21   A(10,9,16)            119.9356         estimate D2E/DX2                !
 ! A22   A(9,10,11)            120.0305         estimate D2E/DX2                !
 ! A23   A(9,10,17)            119.6658         estimate D2E/DX2                !
 ! A24   A(11,10,17)           120.3033         estimate D2E/DX2                !
 ! A25   A(6,11,10)            120.2621         estimate D2E/DX2                !
 ! A26   A(6,11,18)            120.9408         estimate D2E/DX2                !
 ! A27   A(10,11,18)           118.792          estimate D2E/DX2                !
 ! D1    D(12,1,2,3)            -0.4479         estimate D2E/DX2                !
 ! D2    D(12,1,2,6)           179.5964         estimate D2E/DX2                !
 ! D3    D(13,1,2,3)          -178.9324         estimate D2E/DX2                !
 ! D4    D(13,1,2,6)             1.1118         estimate D2E/DX2                !
 ! D5    D(1,2,3,4)           -179.1255         estimate D2E/DX2                !
 ! D6    D(1,2,3,5)             -0.266          estimate D2E/DX2                !
 ! D7    D(6,2,3,4)              0.8303         estimate D2E/DX2                !
 ! D8    D(6,2,3,5)            179.6897         estimate D2E/DX2                !
 ! D9    D(1,2,6,7)             71.5315         estimate D2E/DX2                !
 ! D10   D(1,2,6,11)          -108.1328         estimate D2E/DX2                !
 ! D11   D(3,2,6,7)           -108.4256         estimate D2E/DX2                !
 ! D12   D(3,2,6,11)            71.9101         estimate D2E/DX2                !
 ! D13   D(2,6,7,8)           -179.6424         estimate D2E/DX2                !
 ! D14   D(2,6,7,14)             0.9501         estimate D2E/DX2                !
 ! D15   D(11,6,7,8)             0.0256         estimate D2E/DX2                !
 ! D16   D(11,6,7,14)         -179.382          estimate D2E/DX2                !
 ! D17   D(2,6,11,10)          179.3861         estimate D2E/DX2                !
 ! D18   D(2,6,11,18)            0.2205         estimate D2E/DX2                !
 ! D19   D(7,6,11,10)           -0.2819         estimate D2E/DX2                !
 ! D20   D(7,6,11,18)         -179.4474         estimate D2E/DX2                !
 ! D21   D(6,7,8,9)              0.2258         estimate D2E/DX2                !
 ! D22   D(6,7,8,15)          -179.7158         estimate D2E/DX2                !
 ! D23   D(14,7,8,9)           179.6459         estimate D2E/DX2                !
 ! D24   D(14,7,8,15)           -0.2957         estimate D2E/DX2                !
 ! D25   D(7,8,9,10)            -0.2221         estimate D2E/DX2                !
 ! D26   D(7,8,9,16)           179.7603         estimate D2E/DX2                !
 ! D27   D(15,8,9,10)          179.7198         estimate D2E/DX2                !
 ! D28   D(15,8,9,16)           -0.2977         estimate D2E/DX2                !
 ! D29   D(8,9,10,11)           -0.034          estimate D2E/DX2                !
 ! D30   D(8,9,10,17)          179.7537         estimate D2E/DX2                !
 ! D31   D(16,9,10,11)         179.9835         estimate D2E/DX2                !
 ! D32   D(16,9,10,17)          -0.2288         estimate D2E/DX2                !
 ! D33   D(9,10,11,6)            0.2873         estimate D2E/DX2                !
 ! D34   D(9,10,11,18)         179.4706         estimate D2E/DX2                !
 ! D35   D(17,10,11,6)        -179.499          estimate D2E/DX2                !
 ! D36   D(17,10,11,18)         -0.3157         estimate D2E/DX2                !
 --------------------------------------------------------------------------------
 Trust Radius=3.00D-01 FncErr=1.00D-07 GrdErr=1.00D-06
 Number of steps in this run=     91 maximum allowed number of steps=    108.
 GradGradGradGradGradGradGradGradGradGradGradGradGradGradGradGradGradGrad

                          Input orientation:                          
 ---------------------------------------------------------------------
 Center     Atomic      Atomic             Coordinates (Angstroms)
 Number     Number       Type             X           Y           Z
 ---------------------------------------------------------------------
      1          7           0        1.144219    0.039092   -0.036208
      2          6           0        2.456524    0.017385   -0.107112
      3          7           0        3.202147   -0.432615    0.876702
      4          1           0        4.213754   -0.418267    0.783703
      5          1           0        2.814498   -0.782596    1.741610
      6          6           0        3.106217    0.511805   -1.321737
      7          6           0        3.119481    1.884151   -1.609992
      8          6           0        3.732948    2.352877   -2.772306
      9          6           0        4.331821    1.456027   -3.654964
     10          6           0        4.323835    0.090390   -3.377410
     11          6           0        3.716134   -0.382156   -2.213528
     12          1           0        0.633492   -0.292366    0.769842
     13          1           0        0.607777    0.380920   -0.828304
     14          1           0        2.662913    2.602825   -0.931625
     15          1           0        3.747580    3.418654   -2.994307
     16          1           0        4.806657    1.823068   -4.563405
     17          1           0        4.790447   -0.603859   -4.074289
     18          1           0        3.714011   -1.453675   -2.021028
 ---------------------------------------------------------------------
                    Distance matrix (angstroms):
                    1          2          3          4          5
     1  N    0.000000
     2  C    1.314399   0.000000
     3  N    2.300214   1.313904   0.000000
     4  H    3.209904   2.017722   1.015974   0.000000
     5  H    2.574032   2.045944   1.010359   1.734428   0.000000
     6  C    2.392797   1.463512   2.394633   2.554320   3.338364
     7  C    3.127730   2.486559   3.399689   3.496904   4.293925
     8  C    4.420560   3.766569   4.621253   4.533830   5.572269
     9  C    5.026321   4.263061   5.037771   4.819615   6.036284
    10  C    4.612615   3.766568   4.430484   4.193532   5.407825
    11  C    3.396015   2.486612   3.133090   3.038474   4.076324
    12  H    1.010160   2.046568   2.574699   3.582502   2.437507
    13  H    1.015890   2.017459   3.209306   4.029931   3.581598
    14  H    3.111420   2.721565   3.574174   3.804531   4.316276
    15  H    5.191270   4.644497   5.487667   5.404872   6.399223
    16  H    6.090282   5.351838   6.103878   5.828094   7.107137
    17  H    5.478545   4.644527   5.202339   4.895621   6.144998
    18  H    3.573750   2.721832   3.114709   3.031226   3.926439
                    6          7          8          9         10
     6  C    0.000000
     7  C    1.402355   0.000000
     8  C    2.426209   1.395357   0.000000
     9  C    2.799573   2.415569   1.393583   0.000000
    10  C    2.426103   2.791383   2.415398   1.393580   0.000000
    11  C    1.402304   2.419999   2.791580   2.415724   1.395429
    12  H    3.337029   4.071974   5.399144   6.026062   5.564605
    13  H    2.550060   3.029751   4.175458   4.797329   4.515688
    14  H    2.172802   1.088636   2.143725   3.393667   3.879801
    15  H    3.414470   2.159986   1.088751   2.151676   3.399439
    16  H    3.888357   3.401903   2.154434   1.088785   2.154501
    17  H    3.414364   3.880088   3.399375   2.151581   1.088737
    18  H    2.172910   3.415187   3.880028   3.393789   2.143780
                   11         12         13         14         15
    11  C    0.000000
    12  H    4.290832   0.000000
    13  H    3.487551   1.734372   0.000000
    14  H    3.415063   3.923732   3.028386   0.000000
    15  H    3.880304   6.134985   4.876245   2.469157   0.000000
    16  H    3.402084   7.094638   5.801841   4.288763   2.475805
    17  H    2.160031   6.390845   5.385251   4.968456   4.293547
    18  H    1.088676   4.315923   3.799608   4.329758   4.968702
                   16         17         18
    16  H    0.000000
    17  H    2.475776   0.000000
    18  H    4.288893   2.469166   0.000000
 Stoichiometry    C7H9N2(1+)
 Framework group  C1[X(C7H9N2)]
 Deg. of freedom    48
 Full point group                 C1      NOp   1
 Largest Abelian subgroup         C1      NOp   1
 Largest concise Abelian subgroup C1      NOp   1
                         Standard orientation:                         
 ---------------------------------------------------------------------
 Center     Atomic      Atomic             Coordinates (Angstroms)
 Number     Number       Type             X           Y           Z
 ---------------------------------------------------------------------
      1          7           0       -2.286972   -0.634046    0.964473
      2          6           0       -1.657438   -0.000171    0.000350
      3          7           0       -2.299492    0.630024   -0.957233
      4          1           0       -1.771815    1.095620   -1.690023
      5          1           0       -3.307895    0.661548   -1.011582
      6          6           0       -0.193938    0.001675   -0.005345
      7          6           0        0.515065   -1.166877   -0.319030
      8          6           0        1.910419   -1.165053   -0.316659
      9          6           0        2.605622   -0.000280    0.002824
     10          6           0        1.910111    1.166014    0.316013
     11          6           0        0.514702    1.170039    0.309633
     12          1           0       -3.294354   -0.669122    1.030617
     13          1           0       -1.748821   -1.093882    1.693154
     14          1           0       -0.007680   -2.086213   -0.577270
     15          1           0        2.461397   -2.070768   -0.564614
     16          1           0        3.694394   -0.001608    0.008013
     17          1           0        2.460926    2.070588    0.568393
     18          1           0       -0.008164    2.089900    0.565919
 ---------------------------------------------------------------------
 Rotational constants (GHZ):      3.6861389      1.1228801      0.9956860
 Standard basis: 6-31G(d) (6D, 7F)
 There are   153 symmetry adapted basis functions of A   symmetry.
 Integral buffers will be    131072 words long.
 Raffenetti 2 integral format.
 Two-electron integral symmetry is turned on.
   153 basis functions,   288 primitive gaussians,   153 cartesian basis functions
    32 alpha electrons       32 beta electrons
       nuclear repulsion energy       417.3920023167 Hartrees.
 NAtoms=   18 NActive=   18 NUniq=   18 SFac= 1.00D+00 NAtFMM=   60 NAOKFM=F Big=F
 One-electron integrals computed using PRISM.
 NBasis=   153 RedAO= T  NBF=   153
 NBsUse=   153 1.00D-06 NBFU=   153
 Harris functional with IExCor=  402 diagonalized for initial guess.
 ExpMin= 1.61D-01 ExpMax= 4.17D+03 ExpMxC= 6.27D+02 IAcc=3 IRadAn=         5 AccDes= 0.00D+00
 HarFok:  IExCor=  402 AccDes= 0.00D+00 IRadAn=         5 IDoV= 1
 ScaDFX=  1.000000  1.000000  1.000000  1.000000
 FoFCou: FMM=F IPFlag=           0 FMFlag=      100000 FMFlg1=           0
         NFxFlg=           0 DoJE=T BraDBF=F KetDBF=T FulRan=T
         Omega=  0.000000  0.000000  1.000000  0.000000  0.000000 ICntrl=     500 IOpCl=  0
         NMat0=    1 NMatS0=    1 NMatT0=    0 NMatD0=    1 NMtDS0=    0 NMtDT0=    0
         I1Cent=           4 NGrid=           0.
 Petite list used in FoFCou.
 Initial guess orbital symmetries:
       Occupied  (A) (A) (A) (A) (A) (A) (A) (A) (A) (A) (A) (A)
                 (A) (A) (A) (A) (A) (A) (A) (A) (A) (A) (A) (A)
                 (A) (A) (A) (A) (A) (A) (A) (A)
       Virtual   (A) (A) (A) (A) (A) (A) (A) (A) (A) (A) (A) (A)
                 (A) (A) (A) (A) (A) (A) (A) (A) (A) (A) (A) (A)
                 (A) (A) (A) (A) (A) (A) (A) (A) (A) (A) (A) (A)
                 (A) (A) (A) (A) (A) (A) (A) (A) (A) (A) (A) (A)
                 (A) (A) (A) (A) (A) (A) (A) (A) (A) (A) (A) (A)
                 (A) (A) (A) (A) (A) (A) (A) (A) (A) (A) (A) (A)
                 (A) (A) (A) (A) (A) (A) (A) (A) (A) (A) (A) (A)
                 (A) (A) (A) (A) (A) (A) (A) (A) (A) (A) (A) (A)
                 (A) (A) (A) (A) (A) (A) (A) (A) (A) (A) (A) (A)
                 (A) (A) (A) (A) (A) (A) (A) (A) (A) (A) (A) (A)
                 (A)
 The electronic state of the initial guess is 1-A.
 Requested convergence on RMS density matrix=1.00D-08 within 128 cycles.
 Requested convergence on MAX density matrix=1.00D-06.
 Requested convergence on             energy=1.00D-06.
 No special actions if energy rises.
 Integral accuracy reduced to 1.0D-05 until final iterations.
 Initial convergence to 1.0D-05 achieved.  Increase integral accuracy.
 SCF Done:  E(RB3LYP) =  -381.452797443     A.U. after   14 cycles
             Convg  =    0.2292D-08             -V/T =  2.0097
 Calling FoFJK, ICntrl=      2127 FMM=F ISym2X=0 I1Cent= 0 IOpClX= 0 NMat=1 NMatS=1 NMatT=0.
 ***** Axes restored to original set *****
 -------------------------------------------------------------------
 Center     Atomic                   Forces (Hartrees/Bohr)
 Number     Number              X              Y              Z
 -------------------------------------------------------------------
      1        7          -0.010440814    0.002843409   -0.001476008
      2        6           0.001820609    0.001790711   -0.003987026
      3        7           0.008521476   -0.004830374    0.005941329
      4        1          -0.003093414    0.000430295    0.000992235
      5        1           0.000008793   -0.002806200    0.003602881
      6        6           0.008284263    0.006253145   -0.015539904
      7        6          -0.004010352    0.007923663    0.000847438
      8        6          -0.000308494    0.001343520    0.000667666
      9        6           0.001792928    0.001352786   -0.003356211
     10        6           0.000145162   -0.001500311   -0.000256720
     11        6           0.003973579   -0.007806571   -0.001352790
     12        1          -0.003568301    0.000089287    0.003068281
     13        1           0.001178044   -0.001712151    0.002451009
     14        1          -0.000048590   -0.002042475    0.000488338
     15        1          -0.000837572   -0.002037338    0.002161886
     16        1          -0.000876152   -0.000708434    0.001753476
     17        1          -0.001587169    0.000106377    0.002636910
     18        1          -0.000953996    0.001310663    0.001357211
 -------------------------------------------------------------------
 Cartesian Forces:  Max     0.015539904 RMS     0.004077062

 GradGradGradGradGradGradGradGradGradGradGradGradGradGradGradGradGradGrad
 Berny optimization.
 Internal  Forces:  Max     0.013442817 RMS     0.003101584
 Search for a local minimum.
 Step number   1 out of a maximum of   91
 All quantities printed in internal units (Hartrees-Bohrs-Radians)
 Mixed Optimization -- RFO/linear search
 Second derivative matrix not updated -- first step.
 ITU=  0
     Eigenvalues ---    0.01249   0.01812   0.02070   0.02099   0.02107
     Eigenvalues ---    0.02136   0.02160   0.02162   0.02168   0.02174
     Eigenvalues ---    0.02324   0.02824   0.02826   0.02831   0.02832
     Eigenvalues ---    0.15998   0.15999   0.16000   0.16000   0.16000
     Eigenvalues ---    0.16000   0.16000   0.16000   0.16000   0.22000
     Eigenvalues ---    0.22000   0.23477   0.25000   0.25000   0.25000
     Eigenvalues ---    0.34953   0.34957   0.34959   0.34966   0.34971
     Eigenvalues ---    0.36528   0.41829   0.41886   0.44987   0.45000
     Eigenvalues ---    0.45488   0.45913   0.45946   0.46072   0.46393
     Eigenvalues ---    0.46645   0.63348   0.63475
 RFO step:  Lambda=-3.07490643D-03 EMin= 1.24861904D-02
 Linear search not attempted -- first point.
 Iteration  1 RMS(Cart)=  0.08009785 RMS(Int)=  0.00151049
 Iteration  2 RMS(Cart)=  0.00292182 RMS(Int)=  0.00002512
 Iteration  3 RMS(Cart)=  0.00000283 RMS(Int)=  0.00002507
 Iteration  4 RMS(Cart)=  0.00000000 RMS(Int)=  0.00002507
 Variable       Old X    -DE/DX   Delta X   Delta X   Delta X     New X
                                 (Linear)    (Quad)   (Total)
    R1        2.48385   0.01305   0.00000   0.02050   0.02050   2.50435
    R2        1.90893   0.00422   0.00000   0.00913   0.00913   1.91806
    R3        1.91975  -0.00311   0.00000  -0.00686  -0.00686   1.91289
    R4        2.48292   0.01344   0.00000   0.02108   0.02108   2.50399
    R5        2.76564   0.01268   0.00000   0.03443   0.03443   2.80007
    R6        1.91991  -0.00316   0.00000  -0.00699  -0.00699   1.91293
    R7        1.90930   0.00405   0.00000   0.00877   0.00877   1.91807
    R8        2.65007   0.00142   0.00000   0.00309   0.00310   2.65317
    R9        2.64997   0.00145   0.00000   0.00314   0.00315   2.65312
   R10        2.63684  -0.00209   0.00000  -0.00447  -0.00447   2.63238
   R11        2.05722  -0.00102   0.00000  -0.00290  -0.00290   2.05432
   R12        2.63349   0.00376   0.00000   0.00805   0.00804   2.64153
   R13        2.05744  -0.00245   0.00000  -0.00694  -0.00694   2.05050
   R14        2.63348   0.00372   0.00000   0.00796   0.00795   2.64143
   R15        2.05751  -0.00208   0.00000  -0.00591  -0.00591   2.05160
   R16        2.63698  -0.00212   0.00000  -0.00455  -0.00455   2.63243
   R17        2.05741  -0.00244   0.00000  -0.00691  -0.00691   2.05051
   R18        2.05730  -0.00105   0.00000  -0.00297  -0.00297   2.05433
    A1        2.14410   0.00185   0.00000   0.01143   0.01140   2.15550
    A2        2.08370  -0.00042   0.00000  -0.00249  -0.00252   2.08118
    A3        2.05510  -0.00142   0.00000  -0.00862  -0.00865   2.04645
    A4        2.13158  -0.00277   0.00000  -0.01096  -0.01096   2.12062
    A5        2.07420   0.00162   0.00000   0.00642   0.00642   2.08062
    A6        2.07741   0.00115   0.00000   0.00454   0.00454   2.08195
    A7        2.08480  -0.00053   0.00000  -0.00318  -0.00320   2.08160
    A8        2.14347   0.00193   0.00000   0.01191   0.01189   2.15536
    A9        2.05474  -0.00140   0.00000  -0.00854  -0.00856   2.04619
   A10        2.10064  -0.00278   0.00000  -0.01112  -0.01114   2.08950
   A11        2.10077  -0.00282   0.00000  -0.01127  -0.01128   2.08949
   A12        2.08176   0.00560   0.00000   0.02241   0.02243   2.10419
   A13        2.09915  -0.00332   0.00000  -0.01447  -0.01447   2.08468
   A14        2.11062  -0.00023   0.00000  -0.00437  -0.00439   2.10623
   A15        2.07338   0.00354   0.00000   0.01876   0.01875   2.09213
   A16        2.09479   0.00017   0.00000   0.00138   0.00136   2.09615
   A17        2.09970  -0.00202   0.00000  -0.01252  -0.01251   2.08719
   A18        2.08869   0.00184   0.00000   0.01114   0.01115   2.09984
   A19        2.09676   0.00067   0.00000   0.00370   0.00367   2.10043
   A20        2.09316  -0.00033   0.00000  -0.00179  -0.00177   2.09138
   A21        2.09327  -0.00035   0.00000  -0.00191  -0.00190   2.09137
   A22        2.09493   0.00014   0.00000   0.00122   0.00121   2.09613
   A23        2.08856   0.00186   0.00000   0.01127   0.01128   2.09984
   A24        2.09969  -0.00201   0.00000  -0.01248  -0.01247   2.08721
   A25        2.09897  -0.00327   0.00000  -0.01427  -0.01426   2.08471
   A26        2.11081  -0.00025   0.00000  -0.00446  -0.00447   2.10635
   A27        2.07331   0.00352   0.00000   0.01871   0.01870   2.09201
    D1       -0.00782   0.00097   0.00000   0.03085   0.03085   0.02304
    D2        3.13455   0.00095   0.00000   0.03043   0.03043  -3.11821
    D3       -3.12296   0.00051   0.00000   0.01637   0.01637  -3.10659
    D4        0.01940   0.00050   0.00000   0.01595   0.01595   0.03535
    D5       -3.12633   0.00058   0.00000   0.01855   0.01855  -3.10778
    D6       -0.00464   0.00095   0.00000   0.03019   0.03019   0.02554
    D7        0.01449   0.00059   0.00000   0.01898   0.01898   0.03347
    D8        3.13618   0.00096   0.00000   0.03062   0.03061  -3.11639
    D9        1.24846  -0.00195   0.00000  -0.12659  -0.12662   1.12184
   D10       -1.88727  -0.00205   0.00000  -0.13057  -0.13053  -2.01780
   D11       -1.89238  -0.00196   0.00000  -0.12700  -0.12703  -2.01942
   D12        1.25507  -0.00206   0.00000  -0.13097  -0.13094   1.12413
   D13       -3.13535  -0.00025   0.00000  -0.01064  -0.01064   3.13719
   D14        0.01658  -0.00004   0.00000  -0.00190  -0.00197   0.01461
   D15        0.00045  -0.00017   0.00000  -0.00682  -0.00681  -0.00637
   D16       -3.13081   0.00003   0.00000   0.00193   0.00185  -3.12895
   D17        3.13088   0.00007   0.00000   0.00367   0.00367   3.13455
   D18        0.00385   0.00011   0.00000   0.00570   0.00569   0.00954
   D19       -0.00492   0.00000   0.00000  -0.00015  -0.00015  -0.00507
   D20       -3.13195   0.00004   0.00000   0.00187   0.00186  -3.13009
   D21        0.00394   0.00020   0.00000   0.00810   0.00806   0.01200
   D22       -3.13663   0.00020   0.00000   0.00795   0.00792  -3.12872
   D23        3.13541  -0.00002   0.00000  -0.00060  -0.00067   3.13474
   D24       -0.00516  -0.00003   0.00000  -0.00074  -0.00081  -0.00598
   D25       -0.00388  -0.00006   0.00000  -0.00234  -0.00240  -0.00627
   D26        3.13741  -0.00006   0.00000  -0.00208  -0.00211   3.13530
   D27        3.13670  -0.00006   0.00000  -0.00220  -0.00227   3.13444
   D28       -0.00520  -0.00005   0.00000  -0.00195  -0.00198  -0.00718
   D29       -0.00059  -0.00013   0.00000  -0.00469  -0.00471  -0.00531
   D30        3.13729  -0.00005   0.00000  -0.00134  -0.00132   3.13597
   D31        3.14131  -0.00013   0.00000  -0.00494  -0.00500   3.13631
   D32       -0.00399  -0.00005   0.00000  -0.00160  -0.00161  -0.00560
   D33        0.00501   0.00014   0.00000   0.00585   0.00586   0.01088
   D34        3.13235   0.00007   0.00000   0.00369   0.00368   3.13603
   D35       -3.13285   0.00005   0.00000   0.00243   0.00245  -3.13040
   D36       -0.00551  -0.00001   0.00000   0.00027   0.00026  -0.00525
         Item               Value     Threshold  Converged?
 Maximum Force            0.013443     0.000450     NO 
 RMS     Force            0.003102     0.000300     NO 
 Maximum Displacement     0.257640     0.001800     NO 
 RMS     Displacement     0.080221     0.001200     NO 
 Predicted change in Energy=-1.656650D-03
 GradGradGradGradGradGradGradGradGradGradGradGradGradGradGradGradGradGrad

                          Input orientation:                          
 ---------------------------------------------------------------------
 Center     Atomic      Atomic             Coordinates (Angstroms)
 Number     Number       Type             X           Y           Z
 ---------------------------------------------------------------------
      1          7           0        1.141070    0.121793    0.008600
      2          6           0        2.456844    0.019117   -0.111712
      3          7           0        3.199544   -0.519980    0.844085
      4          1           0        4.204725   -0.554604    0.729559
      5          1           0        2.816451   -0.901407    1.703140
      6          6           0        3.111580    0.519216   -1.343276
      7          6           0        3.067508    1.889061   -1.647881
      8          6           0        3.689491    2.353700   -2.804461
      9          6           0        4.338585    1.458347   -3.659427
     10          6           0        4.375088    0.094039   -3.357542
     11          6           0        3.768738   -0.381115   -2.196907
     12          1           0        0.628358   -0.180848    0.830636
     13          1           0        0.603564    0.511590   -0.755476
     14          1           0        2.569293    2.589504   -0.982338
     15          1           0        3.667194    3.413569   -3.035935
     16          1           0        4.816851    1.824516   -4.562662
     17          1           0        4.874610   -0.601208   -4.024258
     18          1           0        3.794960   -1.443630   -1.968501
 ---------------------------------------------------------------------
                    Distance matrix (angstroms):
                    1          2          3          4          5
     1  N    0.000000
     2  C    1.325246   0.000000
     3  N    2.312405   1.325057   0.000000
     4  H    3.219204   2.022865   1.012277   0.000000
     5  H    2.593319   2.066488   1.014999   1.730733   0.000000
     6  C    2.422483   1.481732   2.423265   2.577732   3.374303
     7  C    3.094888   2.495880   3.468545   3.594020   4.367961
     8  C    4.403314   3.771020   4.670114   4.605757   5.628178
     9  C    5.046276   4.265983   5.049040   4.830433   6.053301
    10  C    4.668035   3.771032   4.405972   4.141757   5.388020
    11  C    3.467249   2.495854   3.096917   2.963847   4.048200
    12  H    1.014992   2.066728   2.593489   3.597264   2.463375
    13  H    1.012258   2.022772   3.218981   4.038621   3.596974
    14  H    3.018505   2.716159   3.660864   3.935815   4.411274
    15  H    5.146483   4.640941   5.544913   5.496752   6.465417
    16  H    6.107952   5.351640   6.111077   5.834597   7.119869
    17  H    5.543104   4.640950   5.149098   4.801010   6.093376
    18  H    3.660957   2.716220   3.019651   2.870157   3.838285
                    6          7          8          9         10
     6  C    0.000000
     7  C    1.403995   0.000000
     8  C    2.415445   1.392993   0.000000
     9  C    2.784252   2.418154   1.397837   0.000000
    10  C    2.415469   2.802643   2.425286   1.397785   0.000000
    11  C    1.403972   2.438617   2.802609   2.418121   1.393020
    12  H    3.373778   4.046854   5.385945   6.050902   5.626222
    13  H    2.575987   2.960546   4.136986   4.824900   4.601030
    14  H    2.170356   1.087100   2.151879   3.402458   3.889709
    15  H    3.398688   2.147194   1.085080   2.159260   3.409373
    16  H    3.869910   3.400046   2.154588   1.085658   2.154535
    17  H    3.398718   3.887702   3.409384   2.159211   1.085082
    18  H    2.170409   3.426195   3.889687   3.402385   2.151838
                   11         12         13         14         15
    11  C    0.000000
    12  H    4.366705   0.000000
    13  H    3.590678   1.730849   0.000000
    14  H    3.426138   3.837831   2.869370   0.000000
    15  H    3.887661   6.091365   4.796645   2.470169   0.000000
    16  H    3.400022   7.117066   5.828398   4.295981   2.485497
    17  H    2.147232   6.463541   5.492275   4.974778   4.307328
    18  H    1.087104   4.411026   3.934376   4.329081   4.974748
                   16         17         18
    16  H    0.000000
    17  H    2.485429   0.000000
    18  H    4.295895   2.470112   0.000000
 Stoichiometry    C7H9N2(1+)
 Framework group  C1[X(C7H9N2)]
 Deg. of freedom    48
 Full point group                 C1      NOp   1
 Largest Abelian subgroup         C1      NOp   1
 Largest concise Abelian subgroup C1      NOp   1
                         Standard orientation:                         
 ---------------------------------------------------------------------
 Center     Atomic      Atomic             Coordinates (Angstroms)
 Number     Number       Type             X           Y           Z
 ---------------------------------------------------------------------
      1          7           0       -2.302874   -0.775316    0.858906
      2          6           0       -1.656951    0.000048   -0.000088
      3          7           0       -2.305974    0.774115   -0.857622
      4          1           0       -1.778935    1.330697   -1.518796
      5          1           0       -3.318051    0.839663   -0.897955
      6          6           0       -0.175220    0.000413   -0.001185
      7          6           0        0.520852   -1.169380   -0.345093
      8          6           0        1.913814   -1.161091   -0.349354
      9          6           0        2.609032    0.000044    0.000480
     10          6           0        1.913750    1.161401    0.349244
     11          6           0        0.520766    1.169860    0.343970
     12          1           0       -3.314771   -0.841217    0.902836
     13          1           0       -1.773123   -1.329971    1.519504
     14          1           0       -0.016051   -2.072565   -0.623982
     15          1           0        2.454087   -2.060390   -0.626419
     16          1           0        3.694689   -0.000163    0.001326
     17          1           0        2.453958    2.060912    0.625756
     18          1           0       -0.016117    2.073666    0.620894
 ---------------------------------------------------------------------
 Rotational constants (GHZ):      3.6494275      1.1311127      0.9779831
 Standard basis: 6-31G(d) (6D, 7F)
 There are   153 symmetry adapted basis functions of A   symmetry.
 Integral buffers will be    131072 words long.
 Raffenetti 2 integral format.
 Two-electron integral symmetry is turned on.
   153 basis functions,   288 primitive gaussians,   153 cartesian basis functions
    32 alpha electrons       32 beta electrons
       nuclear repulsion energy       416.1779767899 Hartrees.
 NAtoms=   18 NActive=   18 NUniq=   18 SFac= 1.00D+00 NAtFMM=   60 NAOKFM=F Big=F
 One-electron integrals computed using PRISM.
 NBasis=   153 RedAO= T  NBF=   153
 NBsUse=   153 1.00D-06 NBFU=   153
 Initial guess read from the read-write file.
 B after Tr=     0.000000    0.000000    0.000000
         Rot=    1.000000    0.000000    0.000000    0.000000 Ang=   0.00 deg.
 Initial guess orbital symmetries:
       Occupied  (A) (A) (A) (A) (A) (A) (A) (A) (A) (A) (A) (A)
                 (A) (A) (A) (A) (A) (A) (A) (A) (A) (A) (A) (A)
                 (A) (A) (A) (A) (A) (A) (A) (A)
       Virtual   (A) (A) (A) (A) (A) (A) (A) (A) (A) (A) (A) (A)
                 (A) (A) (A) (A) (A) (A) (A) (A) (A) (A) (A) (A)
                 (A) (A) (A) (A) (A) (A) (A) (A) (A) (A) (A) (A)
                 (A) (A) (A) (A) (A) (A) (A) (A) (A) (A) (A) (A)
                 (A) (A) (A) (A) (A) (A) (A) (A) (A) (A) (A) (A)
                 (A) (A) (A) (A) (A) (A) (A) (A) (A) (A) (A) (A)
                 (A) (A) (A) (A) (A) (A) (A) (A) (A) (A) (A) (A)
                 (A) (A) (A) (A) (A) (A) (A) (A) (A) (A) (A) (A)
                 (A) (A) (A) (A) (A) (A) (A) (A) (A) (A) (A) (A)
                 (A) (A) (A) (A) (A) (A) (A) (A) (A) (A) (A) (A)
                 (A)
 Harris functional with IExCor=  402 diagonalized for initial guess.
 ExpMin= 1.61D-01 ExpMax= 4.17D+03 ExpMxC= 6.27D+02 IAcc=3 IRadAn=         5 AccDes= 0.00D+00
 HarFok:  IExCor=  402 AccDes= 0.00D+00 IRadAn=         5 IDoV= 1
 ScaDFX=  1.000000  1.000000  1.000000  1.000000
 FoFCou: FMM=F IPFlag=           0 FMFlag=      100000 FMFlg1=           0
         NFxFlg=           0 DoJE=T BraDBF=F KetDBF=T FulRan=T
         Omega=  0.000000  0.000000  1.000000  0.000000  0.000000 ICntrl=     500 IOpCl=  0
         NMat0=    1 NMatS0=    1 NMatT0=    0 NMatD0=    1 NMtDS0=    0 NMtDT0=    0
         I1Cent=           4 NGrid=           0.
 Petite list used in FoFCou.
 Requested convergence on RMS density matrix=1.00D-08 within 128 cycles.
 Requested convergence on MAX density matrix=1.00D-06.
 Requested convergence on             energy=1.00D-06.
 No special actions if energy rises.
 Integral accuracy reduced to 1.0D-05 until final iterations.
 Initial convergence to 1.0D-05 achieved.  Increase integral accuracy.
 SCF Done:  E(RB3LYP) =  -381.455018912     A.U. after   13 cycles
             Convg  =    0.6443D-08             -V/T =  2.0100
 Calling FoFJK, ICntrl=      2127 FMM=F ISym2X=0 I1Cent= 0 IOpClX= 0 NMat=1 NMatS=1 NMatT=0.
 ***** Axes restored to original set *****
 -------------------------------------------------------------------
 Center     Atomic                   Forces (Hartrees/Bohr)
 Number     Number              X              Y              Z
 -------------------------------------------------------------------
      1        7           0.000180996    0.001837936    0.001509406
      2        6           0.000550479    0.000638884   -0.001374305
      3        7          -0.000538699   -0.002344847   -0.000539676
      4        1           0.000176422    0.000678127    0.000298074
      5        1          -0.000027689   -0.000676922   -0.000804757
      6        6           0.000009719    0.000011799   -0.000183844
      7        6          -0.002777539    0.000806758   -0.000140345
      8        6           0.000434074   -0.000868798   -0.000663471
      9        6          -0.000177729   -0.000106967    0.000310895
     10        6          -0.000043573    0.001151780   -0.000075364
     11        6           0.002237176   -0.001352938    0.001630802
     12        1           0.000402623    0.000990452    0.000107045
     13        1          -0.000152390   -0.000616438   -0.000372740
     14        1           0.000134558   -0.000648207    0.000210525
     15        1           0.000123954    0.000126711   -0.000048242
     16        1           0.000013097    0.000000525    0.000023212
     17        1          -0.000045365   -0.000042313   -0.000201892
     18        1          -0.000500112    0.000414456    0.000314677
 -------------------------------------------------------------------
 Cartesian Forces:  Max     0.002777539 RMS     0.000856414

 GradGradGradGradGradGradGradGradGradGradGradGradGradGradGradGradGradGrad
 Berny optimization.
 Using GEDIIS/GDIIS optimizer.
 Internal  Forces:  Max     0.002302687 RMS     0.000643992
 Search for a local minimum.
 Step number   2 out of a maximum of   91
 All quantities printed in internal units (Hartrees-Bohrs-Radians)
 Mixed Optimization -- En-DIIS/RFO-DIIS
 Update second derivatives using D2CorX and points    1    2
 DE= -2.22D-03 DEPred=-1.66D-03 R= 1.34D+00
 SS=  1.41D+00  RLast= 2.78D-01 DXNew= 5.0454D-01 8.3534D-01
 Trust test= 1.34D+00 RLast= 2.78D-01 DXMaxT set to 5.05D-01
 ITU=  1  0
 Use linear search instead of GDIIS.
     Eigenvalues ---    0.00556   0.01818   0.02071   0.02099   0.02109
     Eigenvalues ---    0.02137   0.02160   0.02162   0.02168   0.02174
     Eigenvalues ---    0.02317   0.02703   0.02826   0.02828   0.02832
     Eigenvalues ---    0.15877   0.15998   0.16000   0.16000   0.16000
     Eigenvalues ---    0.16000   0.16000   0.16000   0.16503   0.21994
     Eigenvalues ---    0.22000   0.23444   0.24997   0.25000   0.25047
     Eigenvalues ---    0.34945   0.34955   0.34958   0.34969   0.35037
     Eigenvalues ---    0.39870   0.41868   0.41959   0.44993   0.45140
     Eigenvalues ---    0.45482   0.45927   0.46005   0.46328   0.46645
     Eigenvalues ---    0.49123   0.63410   0.75556
 RFO step:  Lambda=-2.30154531D-03 EMin= 5.55983101D-03
 Quartic linear search produced a step of  0.72797.
 Iteration  1 RMS(Cart)=  0.12259036 RMS(Int)=  0.02523519
 Iteration  2 RMS(Cart)=  0.07087343 RMS(Int)=  0.00121995
 Iteration  3 RMS(Cart)=  0.00221549 RMS(Int)=  0.00005921
 Iteration  4 RMS(Cart)=  0.00000133 RMS(Int)=  0.00005920
 Iteration  5 RMS(Cart)=  0.00000000 RMS(Int)=  0.00005920
 Variable       Old X    -DE/DX   Delta X   Delta X   Delta X     New X
                                 (Linear)    (Quad)   (Total)
    R1        2.50435  -0.00014   0.01492  -0.00059   0.01433   2.51868
    R2        1.91806  -0.00041   0.00665  -0.00152   0.00512   1.92318
    R3        1.91289   0.00012  -0.00500   0.00053  -0.00447   1.90842
    R4        2.50399  -0.00002   0.01534  -0.00029   0.01505   2.51904
    R5        2.80007  -0.00141   0.02506  -0.00654   0.01853   2.81859
    R6        1.91293   0.00012  -0.00509   0.00050  -0.00458   1.90834
    R7        1.91807  -0.00042   0.00638  -0.00153   0.00485   1.92292
    R8        2.65317  -0.00020   0.00226  -0.00064   0.00165   2.65481
    R9        2.65312  -0.00020   0.00229  -0.00064   0.00168   2.65480
   R10        2.63238   0.00039  -0.00325   0.00137  -0.00188   2.63050
   R11        2.05432  -0.00035  -0.00211  -0.00152  -0.00363   2.05069
   R12        2.64153  -0.00036   0.00585  -0.00142   0.00441   2.64594
   R13        2.05050   0.00013  -0.00505   0.00069  -0.00436   2.04615
   R14        2.64143  -0.00033   0.00578  -0.00132   0.00444   2.64587
   R15        2.05160  -0.00001  -0.00430   0.00003  -0.00427   2.04732
   R16        2.63243   0.00038  -0.00331   0.00135  -0.00196   2.63047
   R17        2.05051   0.00013  -0.00503   0.00069  -0.00434   2.04617
   R18        2.05433  -0.00035  -0.00216  -0.00152  -0.00368   2.05064
    A1        2.15550  -0.00014   0.00830  -0.00159   0.00664   2.16214
    A2        2.08118   0.00008  -0.00184   0.00085  -0.00105   2.08012
    A3        2.04645   0.00006  -0.00630   0.00082  -0.00555   2.04090
    A4        2.12062  -0.00038  -0.00798  -0.00219  -0.01017   2.11044
    A5        2.08062   0.00031   0.00467   0.00181   0.00648   2.08710
    A6        2.08195   0.00007   0.00331   0.00038   0.00369   2.08564
    A7        2.08160   0.00004  -0.00233   0.00049  -0.00188   2.07972
    A8        2.15536  -0.00012   0.00866  -0.00149   0.00713   2.16249
    A9        2.04619   0.00008  -0.00623   0.00104  -0.00523   2.04096
   A10        2.08950  -0.00051  -0.00811  -0.00323  -0.01136   2.07814
   A11        2.08949  -0.00052  -0.00821  -0.00328  -0.01152   2.07798
   A12        2.10419   0.00103   0.01633   0.00651   0.02288   2.12707
   A13        2.08468  -0.00076  -0.01053  -0.00479  -0.01533   2.06935
   A14        2.10623  -0.00022  -0.00319  -0.00318  -0.00641   2.09981
   A15        2.09213   0.00098   0.01365   0.00786   0.02146   2.11358
   A16        2.09615   0.00013   0.00099   0.00086   0.00183   2.09797
   A17        2.08719   0.00002  -0.00911   0.00069  -0.00840   2.07879
   A18        2.09984  -0.00015   0.00812  -0.00156   0.00657   2.10642
   A19        2.10043   0.00023   0.00267   0.00130   0.00392   2.10435
   A20        2.09138  -0.00012  -0.00129  -0.00067  -0.00194   2.08945
   A21        2.09137  -0.00011  -0.00138  -0.00063  -0.00198   2.08939
   A22        2.09613   0.00013   0.00088   0.00088   0.00173   2.09786
   A23        2.09984  -0.00015   0.00821  -0.00153   0.00669   2.10653
   A24        2.08721   0.00002  -0.00908   0.00065  -0.00842   2.07880
   A25        2.08471  -0.00077  -0.01038  -0.00482  -0.01521   2.06950
   A26        2.10635  -0.00023  -0.00325  -0.00328  -0.00657   2.09978
   A27        2.09201   0.00099   0.01362   0.00795   0.02152   2.11354
    D1        0.02304   0.00079   0.02246   0.03752   0.05998   0.08302
    D2       -3.11821   0.00079   0.02215   0.03745   0.05960  -3.05861
    D3       -3.10659   0.00061   0.01192   0.02951   0.04143  -3.06515
    D4        0.03535   0.00060   0.01161   0.02944   0.04105   0.07640
    D5       -3.10778   0.00063   0.01351   0.03023   0.04374  -3.06403
    D6        0.02554   0.00077   0.02197   0.03629   0.05826   0.08381
    D7        0.03347   0.00063   0.01382   0.03031   0.04412   0.07759
    D8       -3.11639   0.00077   0.02229   0.03636   0.05865  -3.05775
    D9        1.12184  -0.00227  -0.09218  -0.21627  -0.30851   0.81333
   D10       -2.01780  -0.00230  -0.09502  -0.21781  -0.31278  -2.33058
   D11       -2.01942  -0.00227  -0.09248  -0.21634  -0.30888  -2.32830
   D12        1.12413  -0.00230  -0.09532  -0.21788  -0.31315   0.81098
   D13        3.13719  -0.00004  -0.00775  -0.00170  -0.00945   3.12774
   D14        0.01461   0.00006  -0.00144   0.00473   0.00310   0.01771
   D15       -0.00637  -0.00002  -0.00496  -0.00016  -0.00510  -0.01146
   D16       -3.12895   0.00009   0.00135   0.00627   0.00746  -3.12149
   D17        3.13455  -0.00002   0.00267  -0.00202   0.00067   3.13522
   D18        0.00954   0.00014   0.00414   0.00892   0.01296   0.02250
   D19       -0.00507  -0.00005  -0.00011  -0.00356  -0.00369  -0.00876
   D20       -3.13009   0.00011   0.00135   0.00738   0.00861  -3.12148
   D21        0.01200   0.00006   0.00587   0.00270   0.00853   0.02053
   D22       -3.12872   0.00009   0.00576   0.00465   0.01037  -3.11834
   D23        3.13474  -0.00006  -0.00049  -0.00379  -0.00444   3.13029
   D24       -0.00598  -0.00003  -0.00059  -0.00184  -0.00260  -0.00857
   D25       -0.00627  -0.00003  -0.00174  -0.00155  -0.00340  -0.00967
   D26        3.13530  -0.00003  -0.00154  -0.00167  -0.00328   3.13202
   D27        3.13444  -0.00006  -0.00165  -0.00351  -0.00528   3.12916
   D28       -0.00718  -0.00006  -0.00144  -0.00363  -0.00516  -0.01234
   D29       -0.00531  -0.00005  -0.00343  -0.00227  -0.00578  -0.01108
   D30        3.13597  -0.00009  -0.00096  -0.00561  -0.00662   3.12935
   D31        3.13631  -0.00005  -0.00364  -0.00215  -0.00589   3.13041
   D32       -0.00560  -0.00009  -0.00117  -0.00550  -0.00673  -0.01234
   D33        0.01088   0.00008   0.00427   0.00475   0.00904   0.01991
   D34        3.13603  -0.00009   0.00268  -0.00620  -0.00363   3.13240
   D35       -3.13040   0.00013   0.00178   0.00807   0.00986  -3.12054
   D36       -0.00525  -0.00005   0.00019  -0.00288  -0.00281  -0.00806
         Item               Value     Threshold  Converged?
 Maximum Force            0.002303     0.000450     NO 
 RMS     Force            0.000644     0.000300     NO 
 Maximum Displacement     0.595037     0.001800     NO 
 RMS     Displacement     0.191246     0.001200     NO 
 Predicted change in Energy=-2.032977D-03
 GradGradGradGradGradGradGradGradGradGradGradGradGradGradGradGradGradGrad

                          Input orientation:                          
 ---------------------------------------------------------------------
 Center     Atomic      Atomic             Coordinates (Angstroms)
 Number     Number       Type             X           Y           Z
 ---------------------------------------------------------------------
      1          7           0        1.180607    0.318385    0.114356
      2          6           0        2.458861    0.022146   -0.119616
      3          7           0        3.159054   -0.717500    0.740381
      4          1           0        4.142974   -0.869484    0.571253
      5          1           0        2.761258   -1.152664    1.569737
      6          6           0        3.115921    0.524715   -1.360733
      7          6           0        2.947600    1.871069   -1.724942
      8          6           0        3.579153    2.333121   -2.876164
      9          6           0        4.342643    1.459327   -3.659773
     10          6           0        4.490210    0.116663   -3.291199
     11          6           0        3.887882   -0.361125   -2.130797
     12          1           0        0.688027    0.070062    0.969587
     13          1           0        0.656178    0.823603   -0.585368
     14          1           0        2.360974    2.537888   -1.101375
     15          1           0        3.473167    3.374476   -3.153197
     16          1           0        4.823451    1.825302   -4.559015
     17          1           0        5.070844   -0.563492   -3.901671
     18          1           0        3.985651   -1.400832   -1.835821
 ---------------------------------------------------------------------
                    Distance matrix (angstroms):
                    1          2          3          4          5
     1  N    0.000000
     2  C    1.332829   0.000000
     3  N    2.319314   1.333020   0.000000
     4  H    3.224191   2.026954   1.009852   0.000000
     5  H    2.603954   2.079792   1.017565   1.728091   0.000000
     6  C    2.442110   1.491535   2.441237   2.594455   3.395149
     7  C    2.985985   2.496888   3.580952   3.769888   4.475778
     8  C    4.330749   3.767521   4.749965   4.739120   5.708387
     9  C    5.054134   4.259911   5.049834   4.833716   6.055662
    10  C    4.753101   3.767526   4.326828   4.001449   5.313112
    11  C    3.582147   2.496767   2.983598   2.761263   3.948387
    12  H    1.017703   2.079546   2.603606   3.602509   2.480630
    13  H    1.009893   2.027048   3.224438   4.045004   3.602980
    14  H    2.792394   2.702294   3.824468   4.193256   4.573318
    15  H    5.027168   4.633524   5.657109   5.686068   6.580874
    16  H    6.114041   5.343306   6.108982   5.834772   7.119165
    17  H    5.660399   4.633504   5.022679   4.578386   5.968049
    18  H    3.824548   2.702095   2.790524   2.470038   3.627472
                    6          7          8          9         10
     6  C    0.000000
     7  C    1.404866   0.000000
     8  C    2.404464   1.392000   0.000000
     9  C    2.768381   2.420588   1.400170   0.000000
    10  C    2.404553   2.812605   2.432070   1.400132   0.000000
    11  C    1.404860   2.455919   2.812445   2.420460   1.391982
    12  H    3.395846   3.950922   5.316939   6.059476   5.710785
    13  H    2.596317   2.765217   4.008762   4.842121   4.745639
    14  H    2.165659   1.085179   2.162351   3.411114   3.897602
    15  H    3.385512   2.139244   1.082775   2.163424   3.415665
    16  H    3.851777   3.398953   2.153635   1.083397   2.153568
    17  H    3.385599   3.895304   3.415724   2.163467   1.082784
    18  H    2.165611   3.434411   3.897430   3.410976   2.162290
                   11         12         13         14         15
    11  C    0.000000
    12  H    4.476312   0.000000
    13  H    3.773041   1.728214   0.000000
    14  H    3.434448   3.630125   2.472118   0.000000
    15  H    3.895126   5.972730   4.586515   2.479279   0.000000
    16  H    3.398823   7.123766   5.844607   4.304282   2.489886
    17  H    2.139240   6.583284   5.693081   4.980322   4.315133
    18  H    1.085155   4.572545   4.194894   4.323483   4.980129
                   16         17         18
    16  H    0.000000
    17  H    2.489908   0.000000
    18  H    4.304142   2.479217   0.000000
 Stoichiometry    C7H9N2(1+)
 Framework group  C1[X(C7H9N2)]
 Deg. of freedom    48
 Full point group                 C1      NOp   1
 Largest Abelian subgroup         C1      NOp   1
 Largest concise Abelian subgroup C1      NOp   1
                         Standard orientation:                         
 ---------------------------------------------------------------------
 Center     Atomic      Atomic             Coordinates (Angstroms)
 Number     Number       Type             X           Y           Z
 ---------------------------------------------------------------------
      1          7           0       -2.311326   -0.982018    0.613866
      2          6           0       -1.651772    0.000097   -0.000032
      3          7           0       -2.306569    0.983985   -0.616592
      4          1           0       -1.782362    1.677406   -1.130572
      5          1           0       -3.318512    1.089584   -0.600472
      6          6           0       -0.160239   -0.000807    0.002350
      7          6           0        0.522093   -1.189705   -0.305213
      8          6           0        1.913966   -1.174507   -0.316319
      9          6           0        2.608139    0.000022   -0.001547
     10          6           0        1.914249    1.173875    0.316189
     11          6           0        0.522356    1.188075    0.309360
     12          1           0       -3.323669   -1.084451    0.594129
     13          1           0       -1.791118   -1.677504    1.129197
     14          1           0       -0.030666   -2.089002   -0.556877
     15          1           0        2.448542   -2.080317   -0.573492
     16          1           0        3.691533    0.000577   -0.003946
     17          1           0        2.448978    2.080297    0.570914
     18          1           0       -0.030211    2.087337    0.561471
 ---------------------------------------------------------------------
 Rotational constants (GHZ):      3.6230412      1.1677598      0.9489448
 Standard basis: 6-31G(d) (6D, 7F)
 There are   153 symmetry adapted basis functions of A   symmetry.
 Integral buffers will be    131072 words long.
 Raffenetti 2 integral format.
 Two-electron integral symmetry is turned on.
   153 basis functions,   288 primitive gaussians,   153 cartesian basis functions
    32 alpha electrons       32 beta electrons
       nuclear repulsion energy       416.0089565565 Hartrees.
 NAtoms=   18 NActive=   18 NUniq=   18 SFac= 1.00D+00 NAtFMM=   60 NAOKFM=F Big=F
 One-electron integrals computed using PRISM.
 NBasis=   153 RedAO= T  NBF=   153
 NBsUse=   153 1.00D-06 NBFU=   153
 Initial guess read from the read-write file.
 B after Tr=     0.000000    0.000000    0.000000
         Rot=    1.000000    0.000000    0.000000    0.000000 Ang=   0.00 deg.
 Initial guess orbital symmetries:
       Occupied  (A) (A) (A) (A) (A) (A) (A) (A) (A) (A) (A) (A)
                 (A) (A) (A) (A) (A) (A) (A) (A) (A) (A) (A) (A)
                 (A) (A) (A) (A) (A) (A) (A) (A)
       Virtual   (A) (A) (A) (A) (A) (A) (A) (A) (A) (A) (A) (A)
                 (A) (A) (A) (A) (A) (A) (A) (A) (A) (A) (A) (A)
                 (A) (A) (A) (A) (A) (A) (A) (A) (A) (A) (A) (A)
                 (A) (A) (A) (A) (A) (A) (A) (A) (A) (A) (A) (A)
                 (A) (A) (A) (A) (A) (A) (A) (A) (A) (A) (A) (A)
                 (A) (A) (A) (A) (A) (A) (A) (A) (A) (A) (A) (A)
                 (A) (A) (A) (A) (A) (A) (A) (A) (A) (A) (A) (A)
                 (A) (A) (A) (A) (A) (A) (A) (A) (A) (A) (A) (A)
                 (A) (A) (A) (A) (A) (A) (A) (A) (A) (A) (A) (A)
                 (A) (A) (A) (A) (A) (A) (A) (A) (A) (A) (A) (A)
                 (A)
 Harris functional with IExCor=  402 diagonalized for initial guess.
 ExpMin= 1.61D-01 ExpMax= 4.17D+03 ExpMxC= 6.27D+02 IAcc=3 IRadAn=         5 AccDes= 0.00D+00
 HarFok:  IExCor=  402 AccDes= 0.00D+00 IRadAn=         5 IDoV= 1
 ScaDFX=  1.000000  1.000000  1.000000  1.000000
 FoFCou: FMM=F IPFlag=           0 FMFlag=      100000 FMFlg1=           0
         NFxFlg=           0 DoJE=T BraDBF=F KetDBF=T FulRan=T
         Omega=  0.000000  0.000000  1.000000  0.000000  0.000000 ICntrl=     500 IOpCl=  0
         NMat0=    1 NMatS0=    1 NMatT0=    0 NMatD0=    1 NMtDS0=    0 NMtDT0=    0
         I1Cent=           4 NGrid=           0.
 Petite list used in FoFCou.
 Requested convergence on RMS density matrix=1.00D-08 within 128 cycles.
 Requested convergence on MAX density matrix=1.00D-06.
 Requested convergence on             energy=1.00D-06.
 No special actions if energy rises.
 Integral accuracy reduced to 1.0D-05 until final iterations.
 Initial convergence to 1.0D-05 achieved.  Increase integral accuracy.
 SCF Done:  E(RB3LYP) =  -381.457268810     A.U. after   14 cycles
             Convg  =    0.3249D-08             -V/T =  2.0102
 Calling FoFJK, ICntrl=      2127 FMM=F ISym2X=0 I1Cent= 0 IOpClX= 0 NMat=1 NMatS=1 NMatT=0.
 ***** Axes restored to original set *****
 -------------------------------------------------------------------
 Center     Atomic                   Forces (Hartrees/Bohr)
 Number     Number              X              Y              Z
 -------------------------------------------------------------------
      1        7           0.005535009   -0.000455118    0.002754560
      2        6           0.001153971    0.000672744   -0.001993335
      3        7          -0.005623255    0.000561616   -0.002875788
      4        1           0.002100166    0.000461462    0.000223313
      5        1          -0.000014982    0.001616887   -0.003234171
      6        6          -0.007676055   -0.005802977    0.014463495
      7        6           0.001225924   -0.004990085   -0.002954897
      8        6          -0.000252267   -0.000729990   -0.000056830
      9        6          -0.001422312   -0.001044162    0.002591488
     10        6          -0.000041657    0.000501882    0.000589290
     11        6           0.000085574    0.005905106    0.000841989
     12        1           0.002902416    0.000631574   -0.002237976
     13        1          -0.001296242    0.000101845   -0.001715463
     14        1           0.000553829    0.001494945   -0.000150414
     15        1           0.000640936    0.001509877   -0.001704702
     16        1           0.000653838    0.000509529   -0.001246851
     17        1           0.001274658   -0.000020995   -0.001989240
     18        1           0.000200449   -0.000924138   -0.001304466
 -------------------------------------------------------------------
 Cartesian Forces:  Max     0.014463495 RMS     0.003111297

 GradGradGradGradGradGradGradGradGradGradGradGradGradGradGradGradGradGrad
 Berny optimization.
 Using GEDIIS/GDIIS optimizer.
 Internal  Forces:  Max     0.010860190 RMS     0.002116207
 Search for a local minimum.
 Step number   3 out of a maximum of   91
 All quantities printed in internal units (Hartrees-Bohrs-Radians)
 Mixed Optimization -- RFO/linear search
 Update second derivatives using D2CorX and points    2    3
 DE= -2.25D-03 DEPred=-2.03D-03 R= 1.11D+00
 SS=  1.41D+00  RLast= 6.42D-01 DXNew= 8.4853D-01 1.9271D+00
 Trust test= 1.11D+00 RLast= 6.42D-01 DXMaxT set to 8.49D-01
 ITU=  1  1  0
 Use linear search instead of GDIIS.
     Eigenvalues ---    0.00452   0.01824   0.02070   0.02108   0.02111
     Eigenvalues ---    0.02150   0.02160   0.02162   0.02168   0.02174
     Eigenvalues ---    0.02311   0.02661   0.02827   0.02828   0.02850
     Eigenvalues ---    0.15957   0.15993   0.16000   0.16000   0.16000
     Eigenvalues ---    0.16000   0.16000   0.16059   0.16795   0.22001
     Eigenvalues ---    0.22029   0.24951   0.24994   0.25000   0.25302
     Eigenvalues ---    0.34954   0.34958   0.34960   0.34969   0.35053
     Eigenvalues ---    0.40659   0.42025   0.42314   0.44993   0.45178
     Eigenvalues ---    0.45476   0.45928   0.46072   0.46378   0.46645
     Eigenvalues ---    0.50197   0.63410   0.84123
 RFO step:  Lambda=-1.02247738D-03 EMin= 4.52308060D-03
 Quartic linear search produced a step of  0.14779.
 Iteration  1 RMS(Cart)=  0.08207853 RMS(Int)=  0.00155799
 Iteration  2 RMS(Cart)=  0.00315876 RMS(Int)=  0.00001348
 Iteration  3 RMS(Cart)=  0.00000391 RMS(Int)=  0.00001333
 Iteration  4 RMS(Cart)=  0.00000000 RMS(Int)=  0.00001333
 Variable       Old X    -DE/DX   Delta X   Delta X   Delta X     New X
                                 (Linear)    (Quad)   (Total)
    R1        2.51868  -0.00700   0.00212  -0.00283  -0.00071   2.51797
    R2        1.92318  -0.00344   0.00076  -0.00390  -0.00315   1.92003
    R3        1.90842   0.00191  -0.00066   0.00151   0.00085   1.90927
    R4        2.51904  -0.00712   0.00222  -0.00280  -0.00057   2.51847
    R5        2.81859  -0.01086   0.00274  -0.01625  -0.01351   2.80508
    R6        1.90834   0.00194  -0.00068   0.00152   0.00084   1.90919
    R7        1.92292  -0.00332   0.00072  -0.00379  -0.00307   1.91985
    R8        2.65481   0.00014   0.00024   0.00197   0.00222   2.65703
    R9        2.65480   0.00015   0.00025   0.00201   0.00226   2.65706
   R10        2.63050   0.00103  -0.00028   0.00026  -0.00002   2.63048
   R11        2.05069   0.00053  -0.00054   0.00057   0.00003   2.05072
   R12        2.64594  -0.00256   0.00065  -0.00235  -0.00171   2.64423
   R13        2.04615   0.00183  -0.00064   0.00251   0.00187   2.04802
   R14        2.64587  -0.00251   0.00066  -0.00229  -0.00165   2.64422
   R15        2.04732   0.00150  -0.00063   0.00204   0.00140   2.04873
   R16        2.63047   0.00105  -0.00029   0.00026  -0.00003   2.63044
   R17        2.04617   0.00182  -0.00064   0.00251   0.00186   2.04803
   R18        2.05064   0.00055  -0.00054   0.00059   0.00004   2.05069
    A1        2.16214  -0.00175   0.00098  -0.00663  -0.00567   2.15647
    A2        2.08012   0.00091  -0.00016   0.00496   0.00478   2.08490
    A3        2.04090   0.00084  -0.00082   0.00175   0.00091   2.04181
    A4        2.11044  -0.00036  -0.00150  -0.00620  -0.00770   2.10274
    A5        2.08710   0.00005   0.00096   0.00287   0.00382   2.09093
    A6        2.08564   0.00031   0.00055   0.00333   0.00388   2.08952
    A7        2.07972   0.00095  -0.00028   0.00496   0.00466   2.08439
    A8        2.16249  -0.00179   0.00105  -0.00670  -0.00567   2.15682
    A9        2.04096   0.00085  -0.00077   0.00181   0.00101   2.04197
   A10        2.07814   0.00233  -0.00168   0.00555   0.00386   2.08200
   A11        2.07798   0.00240  -0.00170   0.00581   0.00409   2.08207
   A12        2.12707  -0.00473   0.00338  -0.01136  -0.00795   2.11911
   A13        2.06935   0.00265  -0.00227   0.00712   0.00484   2.07419
   A14        2.09981   0.00003  -0.00095   0.00115   0.00016   2.09997
   A15        2.11358  -0.00269   0.00317  -0.00860  -0.00547   2.10811
   A16        2.09797  -0.00023   0.00027  -0.00138  -0.00111   2.09686
   A17        2.07879   0.00165  -0.00124   0.00573   0.00448   2.08327
   A18        2.10642  -0.00142   0.00097  -0.00437  -0.00341   2.10301
   A19        2.10435  -0.00008   0.00058   0.00003   0.00060   2.10495
   A20        2.08945   0.00003  -0.00029  -0.00003  -0.00031   2.08913
   A21        2.08939   0.00005  -0.00029   0.00000  -0.00029   2.08910
   A22        2.09786  -0.00021   0.00025  -0.00132  -0.00107   2.09679
   A23        2.10653  -0.00144   0.00099  -0.00442  -0.00344   2.10309
   A24        2.07880   0.00165  -0.00124   0.00573   0.00447   2.08327
   A25        2.06950   0.00261  -0.00225   0.00704   0.00478   2.07428
   A26        2.09978   0.00005  -0.00097   0.00115   0.00013   2.09991
   A27        2.11354  -0.00266   0.00318  -0.00852  -0.00539   2.10815
    D1        0.08302   0.00034   0.00886   0.01922   0.02809   0.11111
    D2       -3.05861   0.00035   0.00881   0.01938   0.02819  -3.03042
    D3       -3.06515   0.00082   0.00612   0.03220   0.03832  -3.02683
    D4        0.07640   0.00082   0.00607   0.03235   0.03842   0.11482
    D5       -3.06403   0.00080   0.00646   0.03225   0.03871  -3.02532
    D6        0.08381   0.00032   0.00861   0.01850   0.02711   0.11092
    D7        0.07759   0.00079   0.00652   0.03209   0.03861   0.11620
    D8       -3.05775   0.00032   0.00867   0.01835   0.02701  -3.03074
    D9        0.81333  -0.00117  -0.04559  -0.09245  -0.13805   0.67528
   D10       -2.33058  -0.00114  -0.04622  -0.09165  -0.13787  -2.46845
   D11       -2.32830  -0.00116  -0.04565  -0.09229  -0.13795  -2.46624
   D12        0.81098  -0.00113  -0.04628  -0.09149  -0.13777   0.67321
   D13        3.12774   0.00016  -0.00140   0.00363   0.00224   3.12998
   D14        0.01771   0.00038   0.00046   0.01575   0.01622   0.03393
   D15       -0.01146   0.00012  -0.00075   0.00278   0.00204  -0.00943
   D16       -3.12149   0.00034   0.00110   0.01491   0.01602  -3.10547
   D17        3.13522   0.00000   0.00010   0.00162   0.00173   3.13695
   D18        0.02250   0.00031   0.00192   0.01474   0.01667   0.03917
   D19       -0.00876   0.00004  -0.00054   0.00247   0.00193  -0.00683
   D20       -3.12148   0.00035   0.00127   0.01559   0.01687  -3.10461
   D21        0.02053  -0.00016   0.00126  -0.00524  -0.00399   0.01654
   D22       -3.11834  -0.00002   0.00153   0.00110   0.00263  -3.11571
   D23        3.13029  -0.00033  -0.00066  -0.01728  -0.01793   3.11236
   D24       -0.00857  -0.00019  -0.00038  -0.01094  -0.01131  -0.01988
   D25       -0.00967   0.00009  -0.00050   0.00258   0.00206  -0.00761
   D26        3.13202   0.00008  -0.00048   0.00253   0.00204   3.13406
   D27        3.12916  -0.00005  -0.00078  -0.00385  -0.00462   3.12453
   D28       -0.01234  -0.00006  -0.00076  -0.00389  -0.00465  -0.01699
   D29       -0.01108   0.00011  -0.00085   0.00294   0.00207  -0.00901
   D30        3.12935  -0.00008  -0.00098  -0.00414  -0.00511   3.12425
   D31        3.13041   0.00012  -0.00087   0.00298   0.00210   3.13251
   D32       -0.01234  -0.00007  -0.00100  -0.00409  -0.00508  -0.01742
   D33        0.01991  -0.00014   0.00134  -0.00528  -0.00395   0.01596
   D34        3.13240  -0.00040  -0.00054  -0.01834  -0.01887   3.11352
   D35       -3.12054   0.00005   0.00146   0.00169   0.00315  -3.11739
   D36       -0.00806  -0.00021  -0.00041  -0.01137  -0.01177  -0.01983
         Item               Value     Threshold  Converged?
 Maximum Force            0.010860     0.000450     NO 
 RMS     Force            0.002116     0.000300     NO 
 Maximum Displacement     0.236472     0.001800     NO 
 RMS     Displacement     0.082412     0.001200     NO 
 Predicted change in Energy=-7.116450D-04
 GradGradGradGradGradGradGradGradGradGradGradGradGradGradGradGradGradGrad

                          Input orientation:                          
 ---------------------------------------------------------------------
 Center     Atomic      Atomic             Coordinates (Angstroms)
 Number     Number       Type             X           Y           Z
 ---------------------------------------------------------------------
      1          7           0        1.214920    0.399177    0.166869
      2          6           0        2.460100    0.022908   -0.121885
      3          7           0        3.123271   -0.799599    0.690409
      4          1           0        4.098257   -0.994620    0.511319
      5          1           0        2.703801   -1.249924    1.498730
      6          6           0        3.114239    0.522993   -1.356962
      7          6           0        2.900231    1.853426   -1.758335
      8          6           0        3.529389    2.316746   -2.910345
      9          6           0        4.342647    1.459596   -3.659913
     10          6           0        4.540934    0.133859   -3.258618
     11          6           0        3.936617   -0.343127   -2.098937
     12          1           0        0.746458    0.168817    1.038540
     13          1           0        0.690918    0.940903   -0.505994
     14          1           0        2.289044    2.516273   -1.154404
     15          1           0        3.389677    3.347633   -3.214152
     16          1           0        4.823584    1.826016   -4.559799
     17          1           0        5.158243   -0.533084   -3.849104
     18          1           0        4.062124   -1.376331   -1.791776
 ---------------------------------------------------------------------
                    Distance matrix (angstroms):
                    1          2          3          4          5
     1  N    0.000000
     2  C    1.332453   0.000000
     3  N    2.313647   1.332717   0.000000
     4  H    3.221017   2.029746   1.010299   0.000000
     5  H    2.590397   2.075063   1.015939   1.727620   0.000000
     6  C    2.438197   1.484385   2.437428   2.600368   3.386248
     7  C    2.943047   2.494490   3.617268   3.833792   4.503092
     8  C    4.301521   3.765711   4.779326   4.795470   5.730853
     9  C    5.054842   4.257428   5.051349   4.845830   6.053008
    10  C    4.781916   3.765803   4.298362   3.960031   5.284153
    11  C    3.618361   2.494559   2.941148   2.695182   3.909646
    12  H    1.016038   2.074716   2.590032   3.586936   2.460852
    13  H    1.010342   2.029842   3.221346   4.048597   3.587526
    14  H    2.716910   2.704113   3.885135   4.286520   4.625515
    15  H    4.985405   4.634655   5.702288   5.765100   6.619608
    16  H    6.115531   5.341567   6.111431   5.847933   7.117630
    17  H    5.704994   4.634789   4.981899   4.511083   5.927688
    18  H    3.885266   2.704235   2.715751   2.334792   3.562085
                    6          7          8          9         10
     6  C    0.000000
     7  C    1.406041   0.000000
     8  C    2.408920   1.391989   0.000000
     9  C    2.773048   2.419021   1.399267   0.000000
    10  C    2.408978   2.810634   2.430948   1.399261   0.000000
    11  C    1.406058   2.452540   2.810541   2.418949   1.391967
    12  H    3.386777   3.911414   5.286965   6.055918   5.732786
    13  H    2.602168   2.698540   3.966202   4.852975   4.801133
    14  H    2.166828   1.085195   2.159072   3.407554   3.895461
    15  H    3.391697   2.142805   1.083765   2.161374   3.414046
    16  H    3.857187   3.398270   2.153243   1.084140   2.153220
    17  H    3.391759   3.894273   3.414083   2.161426   1.083771
    18  H    2.166790   3.432556   3.895358   3.407507   2.159064
                   11         12         13         14         15
    11  C    0.000000
    12  H    4.503662   0.000000
    13  H    3.836765   1.727654   0.000000
    14  H    3.432610   3.563584   2.335859   0.000000
    15  H    3.894169   5.931009   4.517717   2.478934   0.000000
    16  H    3.398195   7.121143   5.856252   4.300821   2.486398
    17  H    2.142787   6.621600   5.771137   4.979186   4.311723
    18  H    1.085177   4.625129   4.288104   4.324629   4.979073
                   16         17         18
    16  H    0.000000
    17  H    2.486450   0.000000
    18  H    4.300790   2.478939   0.000000
 Stoichiometry    C7H9N2(1+)
 Framework group  C1[X(C7H9N2)]
 Deg. of freedom    48
 Full point group                 C1      NOp   1
 Largest Abelian subgroup         C1      NOp   1
 Largest concise Abelian subgroup C1      NOp   1
                         Standard orientation:                         
 ---------------------------------------------------------------------
 Center     Atomic      Atomic             Coordinates (Angstroms)
 Number     Number       Type             X           Y           Z
 ---------------------------------------------------------------------
      1          7           0       -2.312399   -1.037936    0.507824
      2          6           0       -1.648975    0.000087    0.000077
      3          7           0       -2.308487    1.039715   -0.510171
      4          1           0       -1.794508    1.770795   -0.981394
      5          1           0       -3.317643    1.145039   -0.458747
      6          6           0       -0.164592   -0.000579    0.002234
      7          6           0        0.523129   -1.197695   -0.264045
      8          6           0        1.915025   -1.184670   -0.273484
      9          6           0        2.608453   -0.000102   -0.001631
     10          6           0        1.915432    1.184022    0.273154
     11          6           0        0.523530    1.196453    0.267941
     12          1           0       -3.321686   -1.140906    0.452423
     13          1           0       -1.801971   -1.771033    0.979865
     14          1           0       -0.025461   -2.103843   -0.499825
     15          1           0        2.453463   -2.097138   -0.501587
     16          1           0        3.692590    0.000273   -0.003985
     17          1           0        2.454171    2.096819    0.499251
     18          1           0       -0.024755    2.102441    0.504958
 ---------------------------------------------------------------------
 Rotational constants (GHZ):      3.6324283      1.1824066      0.9388207
 Standard basis: 6-31G(d) (6D, 7F)
 There are   153 symmetry adapted basis functions of A   symmetry.
 Integral buffers will be    131072 words long.
 Raffenetti 2 integral format.
 Two-electron integral symmetry is turned on.
   153 basis functions,   288 primitive gaussians,   153 cartesian basis functions
    32 alpha electrons       32 beta electrons
       nuclear repulsion energy       416.3751734099 Hartrees.
 NAtoms=   18 NActive=   18 NUniq=   18 SFac= 1.00D+00 NAtFMM=   60 NAOKFM=F Big=F
 One-electron integrals computed using PRISM.
 NBasis=   153 RedAO= T  NBF=   153
 NBsUse=   153 1.00D-06 NBFU=   153
 Initial guess read from the read-write file.
 B after Tr=     0.000000    0.000000    0.000000
         Rot=    1.000000    0.000000    0.000000    0.000000 Ang=   0.00 deg.
 Initial guess orbital symmetries:
       Occupied  (A) (A) (A) (A) (A) (A) (A) (A) (A) (A) (A) (A)
                 (A) (A) (A) (A) (A) (A) (A) (A) (A) (A) (A) (A)
                 (A) (A) (A) (A) (A) (A) (A) (A)
       Virtual   (A) (A) (A) (A) (A) (A) (A) (A) (A) (A) (A) (A)
                 (A) (A) (A) (A) (A) (A) (A) (A) (A) (A) (A) (A)
                 (A) (A) (A) (A) (A) (A) (A) (A) (A) (A) (A) (A)
                 (A) (A) (A) (A) (A) (A) (A) (A) (A) (A) (A) (A)
                 (A) (A) (A) (A) (A) (A) (A) (A) (A) (A) (A) (A)
                 (A) (A) (A) (A) (A) (A) (A) (A) (A) (A) (A) (A)
                 (A) (A) (A) (A) (A) (A) (A) (A) (A) (A) (A) (A)
                 (A) (A) (A) (A) (A) (A) (A) (A) (A) (A) (A) (A)
                 (A) (A) (A) (A) (A) (A) (A) (A) (A) (A) (A) (A)
                 (A) (A) (A) (A) (A) (A) (A) (A) (A) (A) (A) (A)
                 (A)
 Harris functional with IExCor=  402 diagonalized for initial guess.
 ExpMin= 1.61D-01 ExpMax= 4.17D+03 ExpMxC= 6.27D+02 IAcc=3 IRadAn=         5 AccDes= 0.00D+00
 HarFok:  IExCor=  402 AccDes= 0.00D+00 IRadAn=         5 IDoV= 1
 ScaDFX=  1.000000  1.000000  1.000000  1.000000
 FoFCou: FMM=F IPFlag=           0 FMFlag=      100000 FMFlg1=           0
         NFxFlg=           0 DoJE=T BraDBF=F KetDBF=T FulRan=T
         Omega=  0.000000  0.000000  1.000000  0.000000  0.000000 ICntrl=     500 IOpCl=  0
         NMat0=    1 NMatS0=    1 NMatT0=    0 NMatD0=    1 NMtDS0=    0 NMtDT0=    0
         I1Cent=           4 NGrid=           0.
 Petite list used in FoFCou.
 Requested convergence on RMS density matrix=1.00D-08 within 128 cycles.
 Requested convergence on MAX density matrix=1.00D-06.
 Requested convergence on             energy=1.00D-06.
 No special actions if energy rises.
 Integral accuracy reduced to 1.0D-05 until final iterations.
 Initial convergence to 1.0D-05 achieved.  Increase integral accuracy.
 SCF Done:  E(RB3LYP) =  -381.458137811     A.U. after   12 cycles
             Convg  =    0.2992D-08             -V/T =  2.0101
 Calling FoFJK, ICntrl=      2127 FMM=F ISym2X=0 I1Cent= 0 IOpClX= 0 NMat=1 NMatS=1 NMatT=0.
 ***** Axes restored to original set *****
 -------------------------------------------------------------------
 Center     Atomic                   Forces (Hartrees/Bohr)
 Number     Number              X              Y              Z
 -------------------------------------------------------------------
      1        7           0.003911838   -0.000609615    0.001454009
      2        6           0.001255884    0.000669354   -0.002082448
      3        7          -0.003755558    0.000990327   -0.002108962
      4        1           0.001351947    0.000264540    0.000378237
      5        1           0.000010418    0.001443058   -0.001976557
      6        6          -0.006225095   -0.004689824    0.011726523
      7        6           0.002302116   -0.003911693   -0.002376459
      8        6          -0.000472775   -0.000064962    0.000555083
      9        6          -0.000806112   -0.000597556    0.001472212
     10        6          -0.000166357   -0.000413914    0.000598273
     11        6          -0.000731779    0.005070157   -0.000343396
[...]
 76,0.0508229,0.0210173,0.0331605,0.3183863,0.0374229,0.032181,-0.01452
 49,0.3571167,-0.2206527,-0.1458897,0.2799121,-0.1162956,-0.1215156,0.2
 376296,0.291959,0.2219407,-0.6140674,-0.0853194,-0.098836,0.0351408,0.
 1093114,0.0430553,-0.2054162,-0.1815067,0.0418418,0.1849638,-0.1567984
 ,-0.0144909,0.1379921,-0.0051347,0.1476585,-0.1121192,0.1225564,-0.090
 4675,-0.2105696,0.0368955,0.0095937,-0.1033892,0.0102161,0.0738512,-0.
 0615531,-0.1031546,-0.0619048,0.1590317,0.0058603,-0.1116325,-0.055825
 7,-0.132603,-0.1189757,0.2137717,-0.0450937,0.1983238,-0.1065853,0.040
 1177,0.1547094,-0.267244,-0.0687837,0.0274778,0.079209,-0.0568375,-0.1
 599273,0.0750995,0.2911978,0.0537107,-0.052123,0.0913606,0.2999514,0.0
 323901,-0.0551665,0.0737234,0.2640264,0.3495094,0.0064994,0.0000704,-0
 .0308411,0.2975592,0.0509058,0.0676444,0.0368935,0.2163921,0.0618941,0
 .0574192,0.0469678,0.036722,0.0661169,-0.0268879,0.071513,-0.0360917,0
 .0342965,0.110679,0.0266831,0.0107151,0.0240057,0.0037946,0.030778,0.0
 244477,0.0265547,0.0755355,0.0897955,-0.0027881,0.0482295,-0.0051251,0
 .0759524,0.029382,0.0472828,0.0306234,0.0343951,0.0762294,0.0330586,0.
 0567396,0.042835,0.0431692,-0.0190582,0.0458913,-0.0186054,0.0706091,0
 .0971167,0.002459,0.0283141,0.0150478,-0.0130411,0.0503602,0.0004857,0
 .063874,0.0782123\Polar=68.1514025,-12.0670077,81.1724107,-32.1137486,
 -21.9233014,93.4334351\PG=C01 [X(C7H9N2)]\NImag=0\\0.76858371,-0.25253
 226,0.28801941,-0.11601216,-0.28261558,0.73211040,-0.38871811,0.104207
 41,0.08769742,0.74132278,0.11622622,-0.11159112,0.01208816,-0.23300278
 ,0.46971714,0.08246101,0.01834757,-0.14986585,-0.08037084,-0.22321225,
 0.58127962,-0.04628075,0.05222513,-0.03485482,-0.20586317,0.11144590,-
 0.06127619,0.81784844,0.03455714,-0.01160303,0.01365930,0.11438975,-0.
 21431214,0.15244375,-0.17309638,0.38075619,-0.00837866,0.00063700,0.01
 898763,-0.07019973,0.16352341,-0.23003831,-0.12466401,-0.36796821,0.59
 014336,0.00362192,-0.00012333,-0.00082405,-0.01320380,0.00453226,-0.00
 200468,-0.43282914,0.07985636,0.06878092,0.44676230,0.00125119,0.00104
 656,0.00593357,0.02464748,-0.00943196,-0.00601719,0.07411146,-0.043727
 22,0.01897771,-0.08436538,0.04829264,-0.00166487,0.00532447,-0.0019423
 3,-0.02349997,-0.00379239,0.01000938,0.06807768,0.02207188,-0.06235999
 ,-0.06722059,-0.01408408,0.05709299,-0.00117745,-0.00072244,-0.0006136
 4,0.01657105,0.00576198,-0.01797529,-0.14807056,-0.05610066,0.14065825
 ,-0.00491635,-0.01655519,0.02480388,0.13933376,-0.00362585,-0.00051112
 ,-0.00215953,-0.01025379,-0.00886339,0.01549208,-0.05608075,-0.1039374
 6,0.15397929,0.00179122,0.00410871,-0.00974169,0.06283403,0.10732444,0
 .00145090,-0.00385787,0.00085157,0.00727761,0.00777613,-0.01733773,0.1
 4200520,0.15427573,-0.28464928,-0.00174568,-0.00164678,0.00040190,-0.1
 4684613,-0.16103992,0.29659712,-0.02434531,-0.00533898,0.03726539,-0.1
 1235512,-0.00225480,0.05373395,0.01814671,0.00025221,-0.00959951,-0.00
 023869,-0.00021931,-0.00049724,-0.00153596,0.00336762,-0.00196585,0.35
 983808,0.00211996,0.01382540,-0.00801700,-0.00611543,-0.11221759,0.038
 57389,-0.00562614,-0.01263579,0.03187313,-0.00234702,-0.00152458,-0.00
 004534,0.00371183,0.00211637,0.00386356,-0.14585239,0.61992901,0.02645
 773,-0.00439036,-0.01087730,0.05217138,0.04062722,-0.17103173,0.001848
 22,0.02740612,-0.02690485,0.00134832,-0.00303372,-0.00262942,0.0003244
 6,0.00343562,0.00445925,-0.20653429,-0.08449371,0.49320929,-0.00259066
 ,-0.00033340,0.00272425,0.00454067,-0.01582558,-0.00019873,-0.00048492
 ,-0.00040470,0.00386127,-0.00014225,-0.00038276,-0.00013263,0.00099431
 ,0.00074675,0.00050939,-0.09100876,0.05885972,0.00937015,0.35639766,0.
 00586984,-0.00490617,-0.00286417,-0.01223306,-0.01072619,0.02198192,-0
 .00103212,0.00474035,-0.00489744,0.00096087,-0.00109824,-0.00087421,0.
 00017871,0.00087252,0.00031591,0.03584462,-0.28598591,0.07559954,-0.14
 188575,0.63770451,-0.00330252,0.00253026,0.00085468,0.00000830,0.03137
 495,-0.02302835,0.00569192,-0.00156848,-0.00070650,-0.00016020,0.00067
 171,0.00089525,-0.00097570,0.00000124,-0.00164890,0.02321251,0.0351295
 6,-0.10695384,-0.25792128,-0.05538373,0.55004488,-0.00072249,0.0009338
 9,0.00014403,0.00707195,0.00353997,-0.00290948,0.00039600,-0.00238001,
 0.00165194,-0.00034868,0.00078701,0.00059363,-0.00024597,-0.00082256,-
 0.00069923,0.02134088,-0.03632642,0.00299889,-0.13020041,-0.00167301,0
 .09973502,0.33887798,0.00072363,0.00106466,-0.00085669,0.00363460,-0.0
 0694680,0.00381843,-0.00153488,0.00067981,0.00093433,0.00002284,-0.000
 27016,-0.00040206,0.00035060,0.00004832,0.00059099,-0.01471215,-0.0076
 0362,0.02780284,-0.03603144,-0.15090797,0.09981175,-0.13165764,0.70243
 974,0.00149927,-0.00092401,-0.00120095,-0.00130204,0.00147644,0.009985
 25,-0.00122661,0.00175609,-0.00183761,0.00052126,-0.00053541,-0.000419
 75,0.00022241,0.00013539,0.00032801,-0.01434230,0.06436962,-0.01180638
 ,0.11955319,0.04802296,-0.26119376,-0.22746274,-0.11162161,0.52569869,
 -0.00009910,-0.00023892,0.00012696,-0.00106479,0.00131741,0.00017900,-
 0.00021255,0.00036145,-0.00022410,0.00003641,-0.00034486,-0.00020433,0
 .00011116,0.00020300,-0.00000437,-0.01685908,0.02076696,-0.00061081,-0
 .01482747,-0.01296509,0.03919082,-0.16247931,0.10818662,0.08472671,0.3
 5959127,0.00108086,0.00014183,-0.00025391,0.00046082,-0.00409542,-0.00
 125791,0.00018877,-0.00001515,0.00099428,-0.00024454,0.00054975,0.0000
 6289,-0.00027618,-0.00023753,-0.00010311,0.02359151,-0.04792424,-0.006
 98703,0.00983314,0.05621422,-0.04247516,0.07193983,-0.20425809,-0.0287
 9601,-0.11215682,0.63355856,-0.00002639,0.00055119,-0.00002814,-0.0001
 6858,-0.00080194,-0.00081060,0.00039482,-0.00042066,0.00024205,0.00008
 321,0.00012917,0.00003630,0.00000565,0.00002740,0.00004907,0.00053479,
 -0.00848770,-0.00299878,0.02516868,-0.00698990,-0.02790197,0.10320060,
 -0.08072538,-0.16980038,-0.25457896,-0.10813876,0.57412209,-0.00046922
 ,-0.00056970,-0.00011629,0.00304839,0.00590459,0.00296349,0.00000260,-
 0.00076378,0.00029324,-0.00008329,-0.00015129,0.00083598,0.00024196,-0
 .00024304,-0.00010780,-0.01506600,0.01059964,0.02618087,-0.00614106,-0
 .01111898,0.00513307,0.00742644,0.02161034,-0.01227903,-0.09475147,0.0
 6406299,0.01053363,0.36483963,-0.00246497,0.00185765,0.00008951,0.0085
 6179,0.00097571,-0.00675920,-0.00003454,-0.00123485,0.00172697,-0.0004
 3715,-0.00073041,-0.00025374,0.00016783,-0.00007146,-0.00042410,-0.017
 71307,0.04722359,-0.00121158,-0.00739583,-0.03411179,0.02643194,0.0428
 7274,-0.03428915,-0.03920666,0.02942763,-0.31003157,0.09421610,-0.1531
 6260,0.65444055,0.00233668,-0.00017404,-0.00214994,0.00247188,-0.00588
 106,0.00608539,-0.00085122,0.00151862,0.00037415,0.00016088,0.00033456
 ,-0.00028876,-0.00022841,-0.00013105,0.00000744,0.04080456,-0.03421952
 ,-0.03022615,0.00308804,0.03100083,-0.02917673,-0.02393956,-0.00808604
 ,0.04694313,0.02966108,0.04143053,-0.13176200,-0.25773634,-0.05698750,
 0.54773551,0.00581409,-0.00157041,0.00023982,-0.01833639,-0.00234213,0
 .02303395,-0.00213196,0.00588664,-0.00367699,0.00040428,-0.00078601,-0
 .00076891,-0.00014221,0.00003899,0.00044654,-0.14376792,0.07462775,0.0
 8279056,0.00554141,0.04373466,-0.01946074,-0.02655903,0.00221353,0.027
 50960,0.02465192,-0.04112718,-0.00504457,-0.12992484,0.00134726,0.1007
 2570,0.33055643,-0.00322832,-0.00150745,0.00553020,-0.00774709,0.01636
 693,-0.00162344,0.00091454,-0.00420974,0.00223384,-0.00031333,0.001971
 32,0.00216431,-0.00009005,-0.00046482,-0.00019734,0.10330481,-0.191576
 79,-0.07121320,0.02095339,-0.03830922,-0.00407709,0.00529293,-0.002303
 06,-0.01061276,-0.01592415,-0.00804569,0.03229555,-0.03465947,-0.14771
 514,0.09614432,-0.11843394,0.68867327,-0.00251858,0.00341532,-0.000758
 30,0.02208803,-0.01005247,-0.02724456,0.00284918,-0.00381499,-0.000302
 70,-0.00005923,-0.00024773,0.00018263,0.00056266,-0.00039003,0.0002455
 3,0.07124628,-0.03375034,-0.14860631,-0.00624148,-0.03686915,0.0393237
 4,0.02520431,-0.00570136,-0.04056826,-0.01808923,0.06650437,-0.0031211
 7,0.11987644,0.04523011,-0.26465463,-0.22690069,-0.11309839,0.52491759
 ,-0.13827418,-0.01906912,0.14889300,-0.01303644,-0.01224098,0.03106569
 ,0.00245827,-0.00233328,-0.00104442,-0.00028682,-0.00029258,-0.0003385
 5,-0.00065266,0.00201815,-0.00051481,-0.00159965,0.00583345,-0.0009126
 3,0.00062809,0.00024325,-0.00011033,0.00007233,-0.00024013,0.00003439,
 0.00007712,-0.00011752,-0.00010625,-0.00019705,0.00080235,-0.00008016,
 -0.00088796,-0.00117684,0.00129220,0.13740009,-0.01852332,-0.05265192,
 0.10367280,0.00147426,0.00363287,-0.01169764,-0.00103787,-0.00188717,-
 0.00213108,-0.00033259,-0.00050575,-0.00014351,0.00154758,-0.00026915,
 0.00059921,0.00410351,0.00433786,0.00101404,0.00008590,-0.00062400,0.0
 0011543,-0.00011426,-0.00018592,-0.00041672,0.00015581,-0.00013245,-0.
 00001824,-0.00049776,0.00061342,-0.00063726,-0.00035784,0.00009179,0.0
 0110559,0.02486010,0.05040776,0.14777567,0.10307477,-0.34573225,0.0048
 7793,-0.00276245,-0.00022588,-0.00376156,0.00042165,-0.00140771,0.0000
 7954,-0.00029102,-0.00060872,0.00019708,0.00025740,0.00109845,0.000536
 59,0.00169038,0.00230102,-0.00000553,-0.00006244,-0.00036551,-0.000202
 02,0.00002777,0.00029153,0.00020933,-0.00028756,-0.00002200,-0.0001626
 0,0.00022117,-0.00028605,0.00037016,0.00005367,0.00101437,-0.16065758,
 -0.10289586,0.35544685,-0.17420791,0.12523370,-0.12599744,-0.01493510,
 0.01633533,-0.02543901,-0.00339121,0.00046200,0.00383993,0.00056566,0.
 00192552,0.00003323,-0.00038705,-0.00019630,-0.00021621,-0.00012068,-0
 .00076161,-0.00081566,-0.00016613,0.00074686,0.00032748,0.00028403,-0.
 00048257,0.00039639,0.00009289,-0.00017692,-0.00018294,0.00017716,-0.0
 0005660,-0.00018582,0.00014024,0.00043226,-0.00003641,0.01425677,-0.01
 178802,0.01081368,0.17790609,0.12037270,-0.12470273,0.15505781,0.01032
 549,-0.01034606,0.00054394,0.00096328,0.00536863,-0.00004658,0.0011268
 4,0.00144492,0.00147145,-0.00052388,-0.00051973,-0.00022597,-0.0031790
 4,-0.00264372,0.00105428,-0.00160217,0.00249110,0.00076424,0.00043709,
 -0.00053006,-0.00006481,-0.00032786,0.00058163,-0.00002519,0.00017822,
 -0.00110339,0.00082721,0.00106942,-0.00055772,-0.00156118,0.00204253,-
 0.00325418,0.00052249,-0.12996722,0.13558017,-0.12960237,0.15760014,-0
 .24000814,0.00178467,-0.00917300,0.01265437,0.00544229,-0.00043439,0.0
 0074762,0.00069384,0.00047267,0.00163545,0.00008508,-0.00022052,-0.000
 49458,0.00091283,-0.00178226,-0.00162861,-0.00010882,-0.00014824,0.000
 23399,0.00021059,-0.00011724,-0.00085665,0.00000254,0.00017458,-0.0000
 5210,0.00014750,0.00016309,-0.00011257,-0.00035081,0.00036063,0.000072
 14,-0.01756881,0.01101442,-0.01140754,0.13759990,-0.15845709,0.2386651
 8,-0.00029147,-0.00163801,0.00064470,-0.00330489,-0.00089296,-0.000351
 39,0.00003695,0.00054484,-0.00072077,0.00007818,-0.00001857,-0.0000177
 1,-0.00002329,0.00017195,0.00009872,0.00055317,0.00267901,0.00099421,-
 0.13166303,0.10219845,0.09493490,-0.00404089,0.00999727,0.00739382,0.0
 0422946,-0.00035827,0.00531747,-0.00019099,-0.00073314,-0.00024864,0.0
 0426252,0.00157997,0.00113946,0.00000246,0.00013953,-0.00005886,-0.000
 33401,-0.00094111,0.00065936,0.13361744,-0.00110898,0.00114784,0.00057
 234,0.00201109,-0.00087608,-0.00258312,-0.00049077,0.00058508,-0.00006
 781,0.00004769,-0.00004877,-0.00021674,-0.00004026,-0.00003958,0.00006
 523,0.01624916,-0.01335995,-0.01652377,0.10472563,-0.16876901,-0.09220
 883,-0.00726634,0.01147337,0.00711698,0.00019073,0.00008088,0.00332504
 ,-0.00046785,-0.00017851,0.00033887,0.00055568,-0.00379311,0.00404007,
 -0.00030104,0.00038714,0.00012287,-0.00158277,-0.00159352,0.00042222,-
 0.11202494,0.17466538,0.00021557,0.00013531,-0.00016941,-0.00186805,-0
 .00000760,-0.00008627,-0.00007586,0.00019566,-0.00017547,-0.00002105,-
 0.00004699,-0.00005105,0.00003804,0.00015499,0.00013122,-0.00600287,0.
 00695268,0.00740108,0.09641545,-0.09297353,-0.13730611,0.01504389,-0.0
 1788385,-0.00919062,0.00460524,0.00388359,-0.00139943,-0.00027672,0.00
 048780,-0.00054896,0.00175805,0.00305884,0.00099346,-0.00007123,0.0002
 4852,-0.00008337,0.00002086,0.00020619,0.00045709,-0.10780882,0.096958
 79,0.14052952,-0.00005192,-0.00003587,-0.00002771,0.00078328,-0.000544
 92,0.00060434,-0.00032109,-0.00007679,0.00011141,-0.00004080,0.0000086
 2,0.00000517,0.00000761,-0.00004439,0.00011672,0.00341484,0.00075813,0
 .00496044,0.00529776,-0.01514581,0.00457319,-0.05223256,0.04356058,-0.
 00321344,0.00135505,0.01870517,-0.00617322,0.00203116,0.00318357,0.005
 38119,-0.00075000,-0.00005293,0.00038533,-0.00000604,-0.00002292,0.000
 00496,0.00003385,-0.00002506,0.00006344,-0.00230723,-0.00093640,-0.002
 17867,0.04552962,-0.00010477,-0.00003571,0.00005616,0.00046979,-0.0000
 0477,0.00001186,-0.00015436,-0.00008141,0.00006821,-0.00002764,0.00000
 342,-0.00000803,0.00000988,-0.00002116,0.00000946,0.00055585,0.0019416
 9,0.00191427,0.00195583,-0.00494762,0.00130492,0.04364184,-0.31605660,
 0.08300070,0.00141202,-0.01254520,0.00661436,0.00338146,0.00016976,-0.
 00140868,0.00006549,0.00049166,-0.00061898,-0.00000177,0.00000005,-0.0
 0000282,0.00004487,-0.00001501,0.00004716,-0.00121670,0.00043044,-0.00
 069895,-0.04867542,0.33093246,0.00006087,-0.00012271,-0.00015783,-0.00
 027833,0.00142715,0.00053896,0.00009303,0.00008645,-0.00049097,0.00004
 861,0.00003208,0.00002358,-0.00012100,-0.00005478,-0.00005452,0.005654
 35,0.00160188,-0.00170713,-0.00419948,0.02555436,-0.00422987,-0.002711
 38,0.08263722,-0.07890275,0.00248104,-0.01750070,0.00961567,0.00502843
 ,-0.00104229,0.00027071,0.00047662,-0.00047381,-0.00075116,0.00000128,
 -0.00000916,0.00002972,-0.00002738,0.00009677,0.00002372,-0.00226493,-
 0.00081224,-0.00036312,-0.00163408,-0.08989948,0.07654162,-0.00007621,
 -0.00019949,0.00016603,-0.00096213,-0.00014199,-0.00044672,0.00011677,
 0.00001764,-0.00021531,0.00000928,0.00001125,-0.00001695,-0.00001225,0
 .00006510,0.00005295,-0.00008391,0.00030494,-0.00044106,0.00270061,0.0
 0435315,0.00437692,-0.00298082,-0.00718917,0.01584949,-0.10522022,-0.0
 3820183,0.11329090,0.00738390,0.00274659,-0.00479641,0.00459359,0.0031
 3484,0.00220762,0.00001219,0.00006577,-0.00000360,0.00003296,0.0000425
 1,0.00001854,-0.00052925,-0.00049450,0.00056379,-0.00201626,-0.0010507
 8,-0.00210598,0.09918172,-0.00010409,0.00007836,0.00010142,-0.00023352
 ,-0.00025151,-0.00013292,-0.00002624,0.00019111,-0.00005893,-0.0000147
 5,-0.00003727,-0.00012489,-0.00002681,0.00003198,0.00000496,0.00066088
 ,-0.00101711,-0.00045947,0.00411282,-0.00153578,-0.00116641,0.00966210
 ,0.01116553,-0.01727968,-0.03821246,-0.09226363,0.08339115,-0.01361659
 ,-0.00508379,0.02568526,0.00289774,-0.00450117,0.00218839,-0.00002210,
 0.00002180,-0.00001198,-0.00005664,-0.00005922,0.00001517,0.00047230,0
 .00038663,-0.00099175,-0.00129574,0.00047286,-0.00047218,0.03757957,0.
 09211744,-0.00010437,0.00000421,0.00014551,-0.00048380,-0.00008425,-0.
 00052087,0.00007606,0.00001090,-0.00016017,0.00001498,0.00002103,0.000
 01921,-0.00002088,0.00002034,0.00002233,-0.00029679,-0.00064861,0.0005
 5927,0.00417748,-0.00112077,0.00172892,0.00662216,0.00673244,-0.008202
 31,0.11328726,0.08339716,-0.25371410,0.00462842,0.00141363,-0.00231748
 ,0.00221288,0.00239619,0.00280152,-0.00000275,0.00006813,0.00000809,-0
 .00006419,-0.00006425,0.00001745,0.00010514,0.00032123,-0.00055958,-0.
 00199056,-0.00067346,-0.00050108,-0.12619669,-0.09100528,0.26155389,-0
 .00029160,-0.00011961,0.00008258,0.00042647,0.00094060,0.00020927,-0.0
 0005258,-0.00017537,0.00003278,0.00000510,0.00007393,0.00000833,0.0000
 2369,-0.00000092,-0.00002307,0.00426918,-0.00031603,0.00459027,-0.0000
 1727,-0.00044249,-0.00033880,0.00492172,0.00188985,0.00202082,0.001644
 40,0.00185413,0.00242091,-0.14479816,0.10660567,0.09974415,-0.00405986
 ,0.00822637,0.00612060,-0.00001413,-0.00000518,-0.00010904,0.00002010,
 0.00002860,0.00002083,-0.00075359,-0.00020927,-0.00047390,-0.00008162,
 -0.00003816,0.00008551,-0.00213605,-0.00102825,-0.00199702,0.14317831,
 -0.00017302,-0.00014560,0.00012362,-0.00020560,0.00082268,0.00046838,-
 0.00002063,-0.00007764,-0.00005695,0.00001329,0.00005329,0.00002315,0.
 00000974,0.00000829,-0.00000317,0.00022624,0.00037015,0.00348220,-0.00
 045290,-0.00063018,0.00085789,0.00149858,-0.00394617,0.00372863,0.0178
 0512,-0.01306414,-0.01726424,0.10718332,-0.16527621,-0.09109923,-0.007
 96144,0.01079896,0.00769592,-0.00007068,-0.00004009,-0.00004273,0.0000
 0967,0.00001164,0.00002132,-0.00023080,-0.00000746,-0.00027932,0.00087
 243,-0.00061883,-0.00091792,-0.00114721,0.00067366,-0.00066980,-0.1163
 1128,0.17054665,0.00004799,0.00017508,-0.00045620,0.00103839,-0.000877
 13,0.00006827,-0.00002095,0.00007639,-0.00011528,0.00010288,-0.0000314
 3,-0.00001584,-0.00000647,-0.00001372,-0.00000825,0.00403504,0.0036142
 9,-0.00099003,-0.00038568,0.00065555,-0.00036204,0.00229522,0.00346498
 ,0.00149624,-0.00677972,0.00756325,0.00984535,0.09951059,-0.09108577,-
 0.13711808,0.01526403,-0.01703886,-0.01061871,0.00012415,0.00002753,-0
 .00001379,-0.00004501,0.00001052,-0.00004558,-0.00046837,-0.00023813,-
 0.00025179,-0.00042992,0.00040291,0.00036559,-0.00183087,-0.00093812,-
 0.00058218,-0.11020975,0.09492695,0.13927902,-0.00042333,-0.00010859,0
 .00046196,-0.00198463,0.00124188,-0.00327835,0.00063221,-0.00099706,-0
 .00050622,0.00060669,0.00029949,0.00000385,-0.00011979,0.00003080,0.00
 016512,-0.00058180,0.01708365,-0.00472106,0.00114144,0.00236591,0.0050
 8544,-0.00058118,-0.00034188,0.00009882,0.00372432,0.00094204,0.005330
 24,0.00647082,-0.01371754,0.00369242,-0.04940431,0.03778703,0.00087349
 ,0.00004764,0.00024730,0.00009583,0.00003232,-0.00002035,-0.00001060,0
 .00065848,0.00114314,0.00011628,-0.00064564,-0.00026744,-0.00058716,-0
 .00001392,-0.00074820,0.00003268,-0.00228410,-0.00104482,-0.00224154,0
 .04272478,-0.00033594,0.00047314,-0.00011801,-0.00039120,-0.00185230,0
 .00160187,-0.00071440,0.00140044,0.00027882,-0.00014565,-0.00009628,-0
 .00143147,-0.00023672,0.00042477,-0.00000292,0.00111334,-0.01325477,0.
 00597672,0.00304133,0.00052939,-0.00211420,-0.00036574,0.00042618,-0.0
 0014912,0.00034341,0.00148624,0.00232207,0.00233052,-0.00545443,0.0013
 4418,0.04014179,-0.31541002,0.07592485,0.00006621,0.00005793,-0.000035
 31,-0.00012157,-0.00015274,0.00004133,0.00027118,-0.00049075,0.0005996
 2,-0.00023223,-0.00011603,-0.00013066,0.00010360,-0.00038990,-0.000118
 83,-0.00097257,0.00052100,-0.00069429,-0.04389535,0.33189814,-0.000695
 78,0.00028924,0.00039685,-0.00124425,-0.00164891,-0.00043109,0.0002528
 1,0.00028422,-0.00134597,0.00020104,-0.00063814,-0.00198081,-0.0001099
 7,0.00024748,0.00000136,0.00130256,-0.01622451,0.00843062,0.00432573,-
 0.00094750,-0.00020787,0.00022415,-0.00042650,-0.00076343,0.00602154,0
 .00178951,-0.00229987,-0.00445287,0.02699051,-0.00277497,0.00137481,0.
 07409734,-0.07292517,-0.00000318,0.00008382,-0.00003721,-0.00002139,-0
 .00010982,0.00009877,0.00065171,-0.00063302,0.00067279,-0.00055860,-0.
 00011960,-0.00025115,-0.00047266,0.00125525,-0.00029844,-0.00218445,-0
 .00099473,-0.00047671,-0.00461121,-0.08329464,0.07419228\\-0.00013108,
 0.00000146,-0.00000934,0.00009497,0.00005985,-0.00014668,0.00007720,-0
 .00002861,0.00007969,-0.00002520,-0.00000096,-0.00000242,-0.00001943,-
 0.00003106,0.00000845,-0.00005182,-0.00003460,0.00009740,0.00005778,0.
 00002516,-0.00007049,-0.00004008,0.00000874,0.00004306,0.00004563,0.00
 003360,-0.00008400,-0.00000255,-0.00004286,0.00003899,0.00001219,0.000
 03342,-0.00008320,-0.00000266,0.00001195,0.00003504,0.00002002,-0.0000
 0694,0.00001582,-0.00000666,0.00001289,-0.00000468,-0.00001245,-0.0000
 1143,0.00003542,-0.00001170,-0.00000868,0.00001925,-0.00001997,-0.0000
 1372,0.00003013,0.00001581,-0.00000822,-0.00000243\\\@


 A MAN THINKING OR WORKING IS ALWAYS ALONE, 
 LET HIM BE WHERE HE WILL.

                                    -- THOREAU
 Job cpu time:  0 days  0 hours 40 minutes 15.4 seconds.
 File lengths (MBytes):  RWF=     59 Int=      0 D2E=      0 Chk=      3 Scr=      1
 Normal termination of Gaussian 09 at Fri Aug 24 15:07:55 2018.
