 Entering Gaussian System, Link 0=g09
 Initial command:
 /home/fb_chem/chemsoft/lx24-amd64/Gaussian_09_C.01_NBO_3.1_64_istanbul-64/g09/l1.exe /local/2397432.1.parallel/Gau-4431.inp -scrdir=/local/2397432.1.parallel/
 Entering Link 1 = /home/fb_chem/chemsoft/lx24-amd64/Gaussian_09_C.01_NBO_3.1_64_istanbul-64/g09/l1.exe PID=      4432.
  
 Copyright (c) 1988,1990,1992,1993,1995,1998,2003,2009,2011,
            Gaussian, Inc.  All Rights Reserved.
  
 This is part of the Gaussian(R) 09 program.  It is based on
 the Gaussian(R) 03 system (copyright 2003, Gaussian, Inc.),
 the Gaussian(R) 98 system (copyright 1998, Gaussian, Inc.),
 the Gaussian(R) 94 system (copyright 1995, Gaussian, Inc.),
 the Gaussian 92(TM) system (copyright 1992, Gaussian, Inc.),
 the Gaussian 90(TM) system (copyright 1990, Gaussian, Inc.),
 the Gaussian 88(TM) system (copyright 1988, Gaussian, Inc.),
 the Gaussian 86(TM) system (copyright 1986, Carnegie Mellon
 University), and the Gaussian 82(TM) system (copyright 1983,
 Carnegie Mellon University). Gaussian is a federally registered
 trademark of Gaussian, Inc.
  
 This software contains proprietary and confidential information,
 including trade secrets, belonging to Gaussian, Inc.
  
 This software is provided under written license and may be
 used, copied, transmitted, or stored only in accord with that
 written license.
  
 The following legend is applicable only to US Government
 contracts under FAR:
  
                    RESTRICTED RIGHTS LEGEND
  
 Use, reproduction and disclosure by the US Government is
 subject to restrictions as set forth in subparagraphs (a)
 and (c) of the Commercial Computer Software - Restricted
 Rights clause in FAR 52.227-19.
  
 Gaussian, Inc.
 340 Quinnipiac St., Bldg. 40, Wallingford CT 06492
  
  
 ---------------------------------------------------------------
 Warning -- This program may not be used in any manner that
 competes with the business of Gaussian, Inc. or will provide
 assistance to any competitor of Gaussian, Inc.  The licensee
 of this program is prohibited from giving any competitor of
 Gaussian, Inc. access to this program.  By using this program,
 the user acknowledges that Gaussian, Inc. is engaged in the
 business of creating and licensing software in the field of
 computational chemistry and represents and warrants to the
 licensee that it is not a competitor of Gaussian, Inc. and that
 it will not use this program in any manner prohibited above.
 ---------------------------------------------------------------
  

 Cite this work as:
 Gaussian 09, Revision C.01,
 M. J. Frisch, G. W. Trucks, H. B. Schlegel, G. E. Scuseria, 
 M. A. Robb, J. R. Cheeseman, G. Scalmani, V. Barone, B. Mennucci, 
 G. A. Petersson, H. Nakatsuji, M. Caricato, X. Li, H. P. Hratchian, 
 A. F. Izmaylov, J. Bloino, G. Zheng, J. L. Sonnenberg, M. Hada, 
 M. Ehara, K. Toyota, R. Fukuda, J. Hasegawa, M. Ishida, T. Nakajima, 
 Y. Honda, O. Kitao, H. Nakai, T. Vreven, J. A. Montgomery, Jr., 
 J. E. Peralta, F. Ogliaro, M. Bearpark, J. J. Heyd, E. Brothers, 
 K. N. Kudin, V. N. Staroverov, T. Keith, R. Kobayashi, J. Normand, 
 K. Raghavachari, A. Rendell, J. C. Burant, S. S. Iyengar, J. Tomasi, 
 M. Cossi, N. Rega, J. M. Millam, M. Klene, J. E. Knox, J. B. Cross, 
 V. Bakken, C. Adamo, J. Jaramillo, R. Gomperts, R. E. Stratmann, 
 O. Yazyev, A. J. Austin, R. Cammi, C. Pomelli, J. W. Ochterski, 
 R. L. Martin, K. Morokuma, V. G. Zakrzewski, G. A. Voth, 
 P. Salvador, J. J. Dannenberg, S. Dapprich, A. D. Daniels, 
 O. Farkas, J. B. Foresman, J. V. Ortiz, J. Cioslowski, 
 and D. J. Fox, Gaussian, Inc., Wallingford CT, 2010.
 
 ******************************************
 Gaussian 09:  AM64L-G09RevC.01 23-Sep-2011
                16-Feb-2018 
 ******************************************
 %nprocs=4
 Will use up to    4 processors via shared memory.
 %chk=frag51-conf2.chk
 ---------------------------------------------------------
 #B3LYP/6-31G* Integral=(Grid=UltraFine) freq Opt pop=none
 ---------------------------------------------------------
 1/14=-1,18=20,19=15,26=3,38=1/1,3;
 2/9=110,12=2,17=6,18=5,40=1/2;
 3/5=1,6=6,7=1,11=2,16=1,25=1,30=1,71=1,74=-5,75=-5/1,2,3;
 4//1;
 5/5=2,38=5/2;
 7//1,2,3,16;
 1/14=-1,18=20,19=15/3(2);
 2/9=110/2;
 99//99;
 2/9=110/2;
 3/5=1,6=6,7=1,11=2,16=1,25=1,30=1,71=1,74=-5,75=-5/1,2,3;
 4/5=5,16=3/1;
 5/5=2,38=5/2;
 7//1,2,3,16;
 1/14=-1,18=20,19=15/3(-5);
 2/9=110/2;
 99/9=1/99;
 -----------------------------
 Optimization for frag51-conf2
 -----------------------------
 Charge =  0 Multiplicity = 1
 Symbolic Z-Matrix:
 C                     1.63738  -2.01452  -0.13831 
 C                     0.70417  -1.07555   0.30665 
 C                     2.08397  -0.63142   2.2327 
 C                     2.81705  -2.27318   0.5857 
 C                     3.02995  -1.58388   1.80343 
 C                     0.93356  -0.38357   1.48856 
 C                     5.59194   0.28291   2.89162 
 C                     6.73688   1.05071   2.28916 
 C                     4.26174  -1.79644   2.65703 
 C                     3.80921  -3.30654   0.09078 
 N                     5.3244   -0.90208   2.25383 
 O                     4.9789    0.67988   3.88032 
 O                     3.58208  -3.64406  -1.27612 
 Cl                   -0.2088    0.7807    2.037 
 H                     1.43397  -2.54622  -1.06805 
 H                    -0.19451  -0.89309  -0.27803 
 H                     2.25423  -0.08143   3.15779 
 H                     6.7253    0.97081   1.1984 
 H                     6.65137   2.10647   2.56069 
 H                     7.67985   0.65172   2.67215 
 H                     4.0207   -1.64126   3.71529 
 H                     4.63322  -2.82238   2.57193 
 H                     4.82958  -2.91837   0.15896 
 H                     3.71585  -4.21797   0.69 
 H                     5.87835  -1.15712   1.44176 
 H                     4.26066  -4.31583  -1.48897 
 

 GradGradGradGradGradGradGradGradGradGradGradGradGradGradGradGradGradGrad
 Berny optimization.
 Initialization pass.
                           ----------------------------
                           !    Initial Parameters    !
                           ! (Angstroms and Degrees)  !
 --------------------------                            --------------------------
 ! Name  Definition              Value          Derivative Info.                !
 --------------------------------------------------------------------------------
 ! R1    R(1,2)                  1.3966         estimate D2E/DX2                !
 ! R2    R(1,4)                  1.4081         estimate D2E/DX2                !
 ! R3    R(1,15)                 1.0902         estimate D2E/DX2                !
 ! R4    R(2,6)                  1.3887         estimate D2E/DX2                !
 ! R5    R(2,16)                 1.0875         estimate D2E/DX2                !
 ! R6    R(3,5)                  1.4094         estimate D2E/DX2                !
 ! R7    R(3,6)                  1.3923         estimate D2E/DX2                !
 ! R8    R(3,17)                 1.0896         estimate D2E/DX2                !
 ! R9    R(4,5)                  1.4154         estimate D2E/DX2                !
 ! R10   R(4,10)                 1.5156         estimate D2E/DX2                !
 ! R11   R(5,9)                  1.5136         estimate D2E/DX2                !
 ! R12   R(6,14)                 1.7208         estimate D2E/DX2                !
 ! R13   R(7,8)                  1.5045         estimate D2E/DX2                !
 ! R14   R(7,11)                 1.3721         estimate D2E/DX2                !
 ! R15   R(7,12)                 1.2292         estimate D2E/DX2                !
 ! R16   R(8,18)                 1.0937         estimate D2E/DX2                !
 ! R17   R(8,19)                 1.0935         estimate D2E/DX2                !
 ! R18   R(8,20)                 1.0932         estimate D2E/DX2                !
 ! R19   R(9,11)                 1.4463         estimate D2E/DX2                !
 ! R20   R(9,21)                 1.0964         estimate D2E/DX2                !
 ! R21   R(9,22)                 1.0944         estimate D2E/DX2                !
 ! R22   R(10,13)                1.4262         estimate D2E/DX2                !
 ! R23   R(10,23)                1.0938         estimate D2E/DX2                !
 ! R24   R(10,24)                1.0947         estimate D2E/DX2                !
 ! R25   R(11,25)                1.0156         estimate D2E/DX2                !
 ! R26   R(13,26)                0.9783         estimate D2E/DX2                !
 ! A1    A(2,1,4)              121.2979         estimate D2E/DX2                !
 ! A2    A(2,1,15)             118.3549         estimate D2E/DX2                !
 ! A3    A(4,1,15)             120.3469         estimate D2E/DX2                !
 ! A4    A(1,2,6)              119.7227         estimate D2E/DX2                !
 ! A5    A(1,2,16)             119.582          estimate D2E/DX2                !
 ! A6    A(6,2,16)             120.6952         estimate D2E/DX2                !
 ! A7    A(5,3,6)              120.8033         estimate D2E/DX2                !
 ! A8    A(5,3,17)             119.6582         estimate D2E/DX2                !
 ! A9    A(6,3,17)             119.5385         estimate D2E/DX2                !
 ! A10   A(1,4,5)              118.6156         estimate D2E/DX2                !
 ! A11   A(1,4,10)             120.3823         estimate D2E/DX2                !
 ! A12   A(5,4,10)             120.9649         estimate D2E/DX2                !
 ! A13   A(3,5,4)              119.3541         estimate D2E/DX2                !
 ! A14   A(3,5,9)              117.9925         estimate D2E/DX2                !
 ! A15   A(4,5,9)              122.6295         estimate D2E/DX2                !
 ! A16   A(2,6,3)              120.1765         estimate D2E/DX2                !
 ! A17   A(2,6,14)             119.9165         estimate D2E/DX2                !
 ! A18   A(3,6,14)             119.9068         estimate D2E/DX2                !
 ! A19   A(8,7,11)             113.7668         estimate D2E/DX2                !
 ! A20   A(8,7,12)             122.4681         estimate D2E/DX2                !
 ! A21   A(11,7,12)            123.7501         estimate D2E/DX2                !
 ! A22   A(7,8,18)             110.7334         estimate D2E/DX2                !
 ! A23   A(7,8,19)             109.4997         estimate D2E/DX2                !
 ! A24   A(7,8,20)             109.2625         estimate D2E/DX2                !
 ! A25   A(18,8,19)            108.5028         estimate D2E/DX2                !
 ! A26   A(18,8,20)            109.3815         estimate D2E/DX2                !
 ! A27   A(19,8,20)            109.4416         estimate D2E/DX2                !
 ! A28   A(5,9,11)             110.7247         estimate D2E/DX2                !
 ! A29   A(5,9,21)             110.2146         estimate D2E/DX2                !
 ! A30   A(5,9,22)             111.3465         estimate D2E/DX2                !
 ! A31   A(11,9,21)            110.0658         estimate D2E/DX2                !
 ! A32   A(11,9,22)            107.9755         estimate D2E/DX2                !
 ! A33   A(21,9,22)            106.4011         estimate D2E/DX2                !
 ! A34   A(4,10,13)            111.7204         estimate D2E/DX2                !
 ! A35   A(4,10,23)            110.3863         estimate D2E/DX2                !
 ! A36   A(4,10,24)            109.4549         estimate D2E/DX2                !
 ! A37   A(13,10,23)           106.9949         estimate D2E/DX2                !
 ! A38   A(13,10,24)           108.3001         estimate D2E/DX2                !
 ! A39   A(23,10,24)           109.9308         estimate D2E/DX2                !
 ! A40   A(7,11,9)             123.2128         estimate D2E/DX2                !
 ! A41   A(7,11,25)            118.8317         estimate D2E/DX2                !
 ! A42   A(9,11,25)            117.9312         estimate D2E/DX2                !
 ! A43   A(10,13,26)           105.1044         estimate D2E/DX2                !
 ! D1    D(4,1,2,6)             -0.3042         estimate D2E/DX2                !
 ! D2    D(4,1,2,16)           179.5972         estimate D2E/DX2                !
 ! D3    D(15,1,2,6)           179.8871         estimate D2E/DX2                !
 ! D4    D(15,1,2,16)           -0.2115         estimate D2E/DX2                !
 ! D5    D(2,1,4,5)              1.5946         estimate D2E/DX2                !
 ! D6    D(2,1,4,10)           179.3957         estimate D2E/DX2                !
 ! D7    D(15,1,4,5)          -178.6005         estimate D2E/DX2                !
 ! D8    D(15,1,4,10)           -0.7995         estimate D2E/DX2                !
 ! D9    D(1,2,6,3)             -0.4805         estimate D2E/DX2                !
 ! D10   D(1,2,6,14)           179.6655         estimate D2E/DX2                !
 ! D11   D(16,2,6,3)           179.6191         estimate D2E/DX2                !
 ! D12   D(16,2,6,14)           -0.2348         estimate D2E/DX2                !
 ! D13   D(6,3,5,4)              1.3664         estimate D2E/DX2                !
 ! D14   D(6,3,5,9)            179.6356         estimate D2E/DX2                !
 ! D15   D(17,3,5,4)          -178.604          estimate D2E/DX2                !
 ! D16   D(17,3,5,9)            -0.3349         estimate D2E/DX2                !
 ! D17   D(5,3,6,2)             -0.0594         estimate D2E/DX2                !
 ! D18   D(5,3,6,14)           179.7945         estimate D2E/DX2                !
 ! D19   D(17,3,6,2)           179.9111         estimate D2E/DX2                !
 ! D20   D(17,3,6,14)           -0.235          estimate D2E/DX2                !
 ! D21   D(1,4,5,3)             -2.0965         estimate D2E/DX2                !
 ! D22   D(1,4,5,9)            179.7183         estimate D2E/DX2                !
 ! D23   D(10,4,5,3)          -179.8842         estimate D2E/DX2                !
 ! D24   D(10,4,5,9)             1.9306         estimate D2E/DX2                !
 ! D25   D(1,4,10,13)           16.1127         estimate D2E/DX2                !
 ! D26   D(1,4,10,23)          135.0393         estimate D2E/DX2                !
 ! D27   D(1,4,10,24)         -103.8326         estimate D2E/DX2                !
 ! D28   D(5,4,10,13)         -166.1386         estimate D2E/DX2                !
 ! D29   D(5,4,10,23)          -47.2119         estimate D2E/DX2                !
 ! D30   D(5,4,10,24)           73.9162         estimate D2E/DX2                !
 ! D31   D(3,5,9,11)           -89.5898         estimate D2E/DX2                !
 ! D32   D(3,5,9,21)            32.4315         estimate D2E/DX2                !
 ! D33   D(3,5,9,22)           150.2687         estimate D2E/DX2                !
 ! D34   D(4,5,9,11)            88.6188         estimate D2E/DX2                !
 ! D35   D(4,5,9,21)          -149.3599         estimate D2E/DX2                !
 ! D36   D(4,5,9,22)           -31.5226         estimate D2E/DX2                !
 ! D37   D(11,7,8,18)           38.3326         estimate D2E/DX2                !
 ! D38   D(11,7,8,19)          157.9375         estimate D2E/DX2                !
 ! D39   D(11,7,8,20)          -82.2089         estimate D2E/DX2                !
 ! D40   D(12,7,8,18)         -143.0303         estimate D2E/DX2                !
 ! D41   D(12,7,8,19)          -23.4254         estimate D2E/DX2                !
 ! D42   D(12,7,8,20)           96.4283         estimate D2E/DX2                !
 ! D43   D(8,7,11,9)          -179.5598         estimate D2E/DX2                !
 ! D44   D(8,7,11,25)           -1.3933         estimate D2E/DX2                !
 ! D45   D(12,7,11,9)            1.8232         estimate D2E/DX2                !
 ! D46   D(12,7,11,25)         179.9896         estimate D2E/DX2                !
 ! D47   D(5,9,11,7)            97.7634         estimate D2E/DX2                !
 ! D48   D(5,9,11,25)          -80.4186         estimate D2E/DX2                !
 ! D49   D(21,9,11,7)          -24.345          estimate D2E/DX2                !
 ! D50   D(21,9,11,25)         157.473          estimate D2E/DX2                !
 ! D51   D(22,9,11,7)         -140.1013         estimate D2E/DX2                !
 ! D52   D(22,9,11,25)          41.7168         estimate D2E/DX2                !
 ! D53   D(4,10,13,26)        -179.3899         estimate D2E/DX2                !
 ! D54   D(23,10,13,26)         59.6898         estimate D2E/DX2                !
 ! D55   D(24,10,13,26)        -58.7684         estimate D2E/DX2                !
 --------------------------------------------------------------------------------
 Trust Radius=3.00D-01 FncErr=1.00D-07 GrdErr=1.00D-06
 Number of steps in this run=    134 maximum allowed number of steps=    156.
 GradGradGradGradGradGradGradGradGradGradGradGradGradGradGradGradGradGrad

                          Input orientation:                          
 ---------------------------------------------------------------------
 Center     Atomic      Atomic             Coordinates (Angstroms)
 Number     Number       Type             X           Y           Z
 ---------------------------------------------------------------------
      1          6           0        1.637385   -2.014519   -0.138310
      2          6           0        0.704169   -1.075549    0.306645
      3          6           0        2.083966   -0.631421    2.232697
      4          6           0        2.817049   -2.273182    0.585703
      5          6           0        3.029950   -1.583879    1.803425
      6          6           0        0.933560   -0.383572    1.488557
      7          6           0        5.591937    0.282908    2.891618
      8          6           0        6.736880    1.050712    2.289157
      9          6           0        4.261737   -1.796439    2.657032
     10          6           0        3.809211   -3.306537    0.090784
     11          7           0        5.324404   -0.902077    2.253825
     12          8           0        4.978902    0.679883    3.880320
     13          8           0        3.582081   -3.644059   -1.276121
     14         17           0       -0.208799    0.780695    2.037003
     15          1           0        1.433973   -2.546218   -1.068050
     16          1           0       -0.194509   -0.893089   -0.278032
     17          1           0        2.254228   -0.081429    3.157789
     18          1           0        6.725301    0.970812    1.198401
     19          1           0        6.651372    2.106470    2.560690
     20          1           0        7.679846    0.651725    2.672146
     21          1           0        4.020698   -1.641256    3.715289
     22          1           0        4.633215   -2.822376    2.571925
     23          1           0        4.829582   -2.918366    0.158961
     24          1           0        3.715849   -4.217965    0.689998
     25          1           0        5.878354   -1.157120    1.441759
     26          1           0        4.260657   -4.315830   -1.488971
 ---------------------------------------------------------------------
                    Distance matrix (angstroms):
                    1          2          3          4          5
     1  C    0.000000
     2  C    1.396618   0.000000
     3  C    2.781020   2.410553   0.000000
     4  C    1.408087   2.444680   2.438315   0.000000
     5  C    2.427967   2.812118   1.409375   1.415384   0.000000
     6  C    2.408746   1.388657   1.392338   2.816612   2.436130
     7  C    5.486083   5.693660   3.684567   4.421633   3.351542
     8  C    6.425970   6.696637   4.947966   5.414342   4.573657
     9  C    3.840406   4.324383   2.505996   2.569982   1.513646
    10  C    2.537445   3.829516   3.836732   1.515637   2.551066
    11  N    4.533647   5.016790   3.251791   3.308986   2.435618
    12  O    5.880045   5.841749   3.579781   4.924297   3.638204
    13  O    2.780622   4.169505   4.861291   2.435358   3.746037
    14  Cl   3.994196   2.696904   2.699840   4.537421   4.016873
    15  H    1.090181   2.141324   3.870900   2.173096   3.423245
    16  H    2.152431   1.087548   3.400541   3.423474   3.899588
    17  H    3.870607   3.394109   1.089622   3.425810   2.166426
    18  H    6.048627   6.421593   5.017859   5.115988   4.533004
    19  H    7.029027   7.111623   5.335243   6.146865   5.225593
    20  H    7.177664   7.565656   5.757904   6.046083   5.232030
    21  H    4.546398   4.789388   2.639844   3.412097   2.154088
    22  H    4.119832   4.860073   3.378466   2.746844   2.166778
    23  H    3.330981   4.520710   4.131454   2.156076   2.779171
    24  H    3.140268   4.369434   4.231579   2.144971   2.940848
    25  H    4.606254   5.297861   3.911435   3.368978   2.902815
    26  H    3.741909   5.135394   5.671303   3.249722   4.451749
                    6          7          8          9         10
     6  C    0.000000
     7  C    4.910524   0.000000
     8  C    6.031306   1.504453   0.000000
     9  C    3.799775   2.479545   3.790506   0.000000
    10  C    4.332074   4.889467   5.691195   3.011777   0.000000
    11  N    4.487092   1.372057   2.410336   1.446278   3.571552
    12  O    4.818325   1.229200   2.399958   2.853583   5.623194
    13  O    5.028806   6.068825   6.686168   4.398332   1.426162
    14  Cl   1.720841   5.884445   6.955498   5.197283   6.052904
    15  H    3.385807   6.400905   7.233918   4.736523   2.750043
    16  H    2.157078   6.701686   7.642838   5.411909   4.689406
    17  H    2.149834   3.368069   4.704299   2.687398   4.714426
    18  H    5.955066   2.150514   1.093740   3.981762   5.293969
    19  H    6.327965   2.134782   1.093465   4.577372   6.593857
    20  H    6.927128   2.131563   1.093187   4.204427   6.108443
    21  H    4.008806   2.617180   4.081445   1.096399   3.994362
    22  H    4.561678   3.265599   4.416579   1.094434   2.658845
    23  H    4.834459   4.277470   4.891738   2.796699   1.093838
    24  H    4.804311   5.350204   6.280358   3.167176   1.094750
    25  H    5.005153   2.063445   2.515884   2.121101   3.275130
    26  H    5.949614   6.489241   7.014678   4.851461   1.928238
                   11         12         13         14         15
    11  N    0.000000
    12  O    2.295094   0.000000
    13  O    4.797362   6.872880   0.000000
    14  Cl   5.787493   5.506380   6.702687   0.000000
    15  H    5.373408   6.889166   2.421347   4.838223   0.000000
    16  H    6.071967   6.821313   4.777724   2.856772   2.451308
    17  H    3.304027   2.919845   5.840812   2.840057   4.960415
    18  H    2.565959   3.213602   6.107383   6.987213   6.745699
    19  H    3.302478   2.563928   7.563746   7.006702   7.876326
    20  H    2.852613   2.958983   7.129814   7.915224   7.951531
    21  H    2.093302   2.516561   5.396090   5.154720   5.512752
    22  H    2.065546   3.754626   4.072777   6.059156   4.853951
    23  H    2.949360   5.178630   2.035277   6.526514   3.629630
    24  H    4.003513   5.980165   2.052532   6.496452   3.330530
    25  H    1.015559   3.182794   4.341038   6.415830   5.289731
    26  H    5.176272   7.369011   0.978288   7.640884   3.361376
                   16         17         18         19         20
    16  H    0.000000
    17  H    4.296507   0.000000
    18  H    7.316949   4.993686   0.000000
    19  H    7.995110   4.947555   1.775109   0.000000
    20  H    8.549589   5.496426   1.784628   1.785067   0.000000
    21  H    5.854428   2.421628   4.524655   4.722181   4.442440
    22  H    5.928855   3.676358   4.544411   5.326031   4.621837
    23  H    5.434537   4.865556   4.449707   5.859709   5.213986
    24  H    5.223292   5.033613   6.019858   7.219090   6.584532
    25  H    6.317203   4.151646   2.303180   3.535616   2.833928
    26  H    5.747176   6.599113   6.422229   7.959976   7.326824
                   21         22         23         24         25
    21  H    0.000000
    22  H    1.754281   0.000000
    23  H    3.864295   2.422844   0.000000
    24  H    3.985567   2.516124   1.792027   0.000000
    25  H    2.975603   2.366585   2.418156   3.822348   0.000000
    26  H    5.856215   4.342820   2.234337   2.248178   4.602561
                   26
    26  H    0.000000
 Stoichiometry    C10H12ClNO2
 Framework group  C1[X(C10H12ClNO2)]
 Deg. of freedom    72
 Full point group                 C1      NOp   1
 Largest Abelian subgroup         C1      NOp   1
 Largest concise Abelian subgroup C1      NOp   1
                         Standard orientation:                         
 ---------------------------------------------------------------------
 Center     Atomic      Atomic             Coordinates (Angstroms)
 Number     Number       Type             X           Y           Z
 ---------------------------------------------------------------------
      1          6           0       -2.014712    1.356305    0.356295
      2          6           0       -2.627069    0.105084    0.456316
      3          6           0       -0.668181   -0.919553   -0.504746
      4          6           0       -0.713987    1.494537   -0.164970
      5          6           0       -0.040731    0.336885   -0.623096
      6          6           0       -1.949131   -1.029307    0.029788
      7          6           0        2.959481   -0.947520    0.139705
      8          6           0        3.951251   -0.850798    1.266832
      9          6           0        1.355687    0.381592   -1.205455
     10          6           0       -0.074494    2.864103   -0.276734
     11          7           0        2.349340    0.243371   -0.163691
     12          8           0        2.745183   -1.997507   -0.462405
     13          8           0       -0.760427    3.832969    0.513666
     14         17           0       -2.695548   -2.574473    0.158700
     15          1           0       -2.567900    2.232125    0.696027
     16          1           0       -3.630278    0.029809    0.869434
     17          1           0       -0.145158   -1.816638   -0.834838
     18          1           0        3.588919   -0.172110    2.044241
     19          1           0        4.097614   -1.839619    1.710089
     20          1           0        4.903996   -0.481621    0.878190
     21          1           0        1.480428   -0.411697   -1.951929
     22          1           0        1.540492    1.326835   -1.725212
     23          1           0        0.958555    2.832646    0.081458
     24          1           0       -0.097681    3.193259   -1.320571
     25          1           0        2.582331    1.066440    0.383695
     26          1           0       -0.279105    4.671347    0.363663
 ---------------------------------------------------------------------
 Rotational constants (GHZ):      0.5907790      0.4479151      0.2763451
 Standard basis: 6-31G(d) (6D, 7F)
 There are   238 symmetry adapted basis functions of A   symmetry.
 Integral buffers will be    131072 words long.
 Raffenetti 2 integral format.
 Two-electron integral symmetry is turned on.
   238 basis functions,   464 primitive gaussians,   238 cartesian basis functions
    56 alpha electrons       56 beta electrons
       nuclear repulsion energy       958.0472564972 Hartrees.
 NAtoms=   26 NActive=   26 NUniq=   26 SFac= 1.00D+00 NAtFMM=   60 NAOKFM=F Big=F
 One-electron integrals computed using PRISM.
 NBasis=   238 RedAO= T  NBF=   238
 NBsUse=   238 1.00D-06 NBFU=   238
 Harris functional with IExCor=  402 diagonalized for initial guess.
 ExpMin= 1.43D-01 ExpMax= 2.52D+04 ExpMxC= 3.78D+03 IAcc=3 IRadAn=         5 AccDes= 0.00D+00
 HarFok:  IExCor=  402 AccDes= 0.00D+00 IRadAn=         5 IDoV= 1
 ScaDFX=  1.000000  1.000000  1.000000  1.000000
 FoFCou: FMM=F IPFlag=           0 FMFlag=      100000 FMFlg1=           0
         NFxFlg=           0 DoJE=T BraDBF=F KetDBF=T FulRan=T
         Omega=  0.000000  0.000000  1.000000  0.000000  0.000000 ICntrl=     500 IOpCl=  0
         NMat0=    1 NMatS0=    1 NMatT0=    0 NMatD0=    1 NMtDS0=    0 NMtDT0=    0
         I1Cent=           4 NGrid=           0.
 Petite list used in FoFCou.
 Initial guess orbital symmetries:
       Occupied  (A) (A) (A) (A) (A) (A) (A) (A) (A) (A) (A) (A)
                 (A) (A) (A) (A) (A) (A) (A) (A) (A) (A) (A) (A)
                 (A) (A) (A) (A) (A) (A) (A) (A) (A) (A) (A) (A)
                 (A) (A) (A) (A) (A) (A) (A) (A) (A) (A) (A) (A)
                 (A) (A) (A) (A) (A) (A) (A) (A)
       Virtual   (A) (A) (A) (A) (A) (A) (A) (A) (A) (A) (A) (A)
                 (A) (A) (A) (A) (A) (A) (A) (A) (A) (A) (A) (A)
                 (A) (A) (A) (A) (A) (A) (A) (A) (A) (A) (A) (A)
                 (A) (A) (A) (A) (A) (A) (A) (A) (A) (A) (A) (A)
                 (A) (A) (A) (A) (A) (A) (A) (A) (A) (A) (A) (A)
                 (A) (A) (A) (A) (A) (A) (A) (A) (A) (A) (A) (A)
                 (A) (A) (A) (A) (A) (A) (A) (A) (A) (A) (A) (A)
                 (A) (A) (A) (A) (A) (A) (A) (A) (A) (A) (A) (A)
                 (A) (A) (A) (A) (A) (A) (A) (A) (A) (A) (A) (A)
                 (A) (A) (A) (A) (A) (A) (A) (A) (A) (A) (A) (A)
                 (A) (A) (A) (A) (A) (A) (A) (A) (A) (A) (A) (A)
                 (A) (A) (A) (A) (A) (A) (A) (A) (A) (A) (A) (A)
                 (A) (A) (A) (A) (A) (A) (A) (A) (A) (A) (A) (A)
                 (A) (A) (A) (A) (A) (A) (A) (A) (A) (A) (A) (A)
                 (A) (A) (A) (A) (A) (A) (A) (A) (A) (A) (A) (A)
                 (A) (A)
 The electronic state of the initial guess is 1-A.
 Requested convergence on RMS density matrix=1.00D-08 within 128 cycles.
 Requested convergence on MAX density matrix=1.00D-06.
 Requested convergence on             energy=1.00D-06.
 No special actions if energy rises.
 Integral accuracy reduced to 1.0D-05 until final iterations.
 Initial convergence to 1.0D-05 achieved.  Increase integral accuracy.
 SCF Done:  E(RB3LYP) =  -1053.68242925     A.U. after   15 cycles
             Convg  =    0.5863D-08             -V/T =  2.0066
 Calling FoFJK, ICntrl=      2127 FMM=F ISym2X=0 I1Cent= 0 IOpClX= 0 NMat=1 NMatS=1 NMatT=0.
 ***** Axes restored to original set *****
 -------------------------------------------------------------------
 Center     Atomic                   Forces (Hartrees/Bohr)
 Number     Number              X              Y              Z
 -------------------------------------------------------------------
      1        6           0.003484270   -0.000606248    0.000934943
      2        6          -0.000538423   -0.004587452   -0.006956370
      3        6           0.005367751   -0.004008943    0.002525085
      4        6          -0.007576400    0.003392698   -0.000325246
      5        6          -0.014091761    0.001512538   -0.003859455
      6        6           0.012328968   -0.010080897   -0.003748930
      7        6          -0.007003259    0.000900073    0.006605648
      8        6           0.001901982    0.006059657   -0.003955821
      9        6          -0.004033003   -0.006890328   -0.001426814
     10        6          -0.003593642    0.000728851   -0.009127226
     11        7           0.010351965    0.003892079    0.004769454
     12        8           0.000129072   -0.006465849   -0.005831519
     13        8           0.001985404   -0.003873459   -0.001557578
     14       17          -0.011510776    0.011841777    0.005792171
     15        1           0.003895664    0.000815214    0.003354245
     16        1           0.000843593    0.000470852    0.001733787
     17        1           0.000905590   -0.001802797   -0.002226988
     18        1           0.003446095   -0.000081114   -0.001537612
     19        1           0.000902212   -0.002059702    0.001394707
     20        1           0.003090583    0.001222270   -0.000720421
     21        1           0.003521218    0.004600216   -0.003213894
     22        1          -0.000790598   -0.001469416   -0.000121058
     23        1           0.004458479    0.000470693    0.008118233
     24        1           0.003935742   -0.001942371    0.006931616
     25        1          -0.003416606    0.002518047    0.003584906
     26        1          -0.007994119    0.005443609   -0.001135861
 -------------------------------------------------------------------
 Cartesian Forces:  Max     0.014091761 RMS     0.004994795

 GradGradGradGradGradGradGradGradGradGradGradGradGradGradGradGradGradGrad
 Berny optimization.
 Internal  Forces:  Max     0.017499262 RMS     0.004061942
 Search for a local minimum.
 Step number   1 out of a maximum of  134
 All quantities printed in internal units (Hartrees-Bohrs-Radians)
 Mixed Optimization -- RFO/linear search
 Second derivative matrix not updated -- first step.
 ITU=  0
     Eigenvalues ---    0.00559   0.00585   0.00707   0.01080   0.01260
     Eigenvalues ---    0.01346   0.01365   0.01413   0.01478   0.01931
     Eigenvalues ---    0.02052   0.02059   0.02061   0.02076   0.02181
     Eigenvalues ---    0.02185   0.02216   0.05207   0.06147   0.06561
     Eigenvalues ---    0.07242   0.07364   0.07501   0.09817   0.11720
     Eigenvalues ---    0.13155   0.14053   0.15995   0.16000   0.16000
     Eigenvalues ---    0.16000   0.16000   0.16000   0.16000   0.16000
     Eigenvalues ---    0.21921   0.22001   0.22165   0.22364   0.23491
     Eigenvalues ---    0.24588   0.24978   0.24990   0.24993   0.25000
     Eigenvalues ---    0.25000   0.30791   0.30987   0.31915   0.33494
     Eigenvalues ---    0.34083   0.34269   0.34305   0.34373   0.34384
     Eigenvalues ---    0.34415   0.34447   0.34792   0.34856   0.35098
     Eigenvalues ---    0.38737   0.40875   0.41175   0.41546   0.43911
     Eigenvalues ---    0.45054   0.45465   0.46027   0.47080   0.50583
     Eigenvalues ---    0.51719   0.91420
 RFO step:  Lambda=-8.57378396D-03 EMin= 5.59103387D-03
 Linear search not attempted -- first point.
 Iteration  1 RMS(Cart)=  0.11296107 RMS(Int)=  0.00282855
 Iteration  2 RMS(Cart)=  0.00471800 RMS(Int)=  0.00028819
 Iteration  3 RMS(Cart)=  0.00001191 RMS(Int)=  0.00028809
 Iteration  4 RMS(Cart)=  0.00000000 RMS(Int)=  0.00028809
 Variable       Old X    -DE/DX   Delta X   Delta X   Delta X     New X
                                 (Linear)    (Quad)   (Total)
    R1        2.63923  -0.00291   0.00000  -0.00586  -0.00585   2.63337
    R2        2.66090  -0.00931   0.00000  -0.02141  -0.02141   2.63949
    R3        2.06014  -0.00399   0.00000  -0.01118  -0.01118   2.04897
    R4        2.62418   0.00444   0.00000   0.01026   0.01027   2.63445
    R5        2.05517  -0.00155   0.00000  -0.00431  -0.00431   2.05086
    R6        2.66333  -0.00846   0.00000  -0.01914  -0.01914   2.64419
    R7        2.63114   0.00125   0.00000   0.00340   0.00340   2.63454
    R8        2.05909  -0.00266   0.00000  -0.00745  -0.00745   2.05164
    R9        2.67469  -0.00612   0.00000  -0.01510  -0.01510   2.65959
   R10        2.86414  -0.00241   0.00000  -0.00762  -0.00762   2.85652
   R11        2.86038   0.00603   0.00000   0.01892   0.01892   2.87930
   R12        3.25192   0.01750   0.00000   0.05094   0.05094   3.30286
   R13        2.84300   0.01166   0.00000   0.03559   0.03559   2.87859
   R14        2.59281  -0.00177   0.00000  -0.00344  -0.00344   2.58938
   R15        2.32285  -0.00684   0.00000  -0.00742  -0.00742   2.31544
   R16        2.06687   0.00150   0.00000   0.00426   0.00426   2.07113
   R17        2.06635  -0.00171   0.00000  -0.00486  -0.00486   2.06149
   R18        2.06582   0.00197   0.00000   0.00557   0.00557   2.07140
   R19        2.73307   0.00941   0.00000   0.02376   0.02376   2.75683
   R20        2.07189  -0.00323   0.00000  -0.00923  -0.00923   2.06266
   R21        2.06818   0.00112   0.00000   0.00318   0.00318   2.07136
   R22        2.69506   0.00317   0.00000   0.00747   0.00747   2.70252
   R23        2.06705   0.00483   0.00000   0.01371   0.01371   2.08077
   R24        2.06878   0.00508   0.00000   0.01445   0.01445   2.08323
   R25        1.91913  -0.00536   0.00000  -0.01168  -0.01168   1.90745
   R26        1.84870  -0.00904   0.00000  -0.01719  -0.01719   1.83151
    A1        2.11705  -0.00006   0.00000  -0.00083  -0.00087   2.11618
    A2        2.06568   0.00340   0.00000   0.02041   0.02043   2.08611
    A3        2.10045  -0.00334   0.00000  -0.01959  -0.01957   2.08088
    A4        2.08956  -0.00261   0.00000  -0.00798  -0.00802   2.08154
    A5        2.08710   0.00257   0.00000   0.01150   0.01151   2.09861
    A6        2.10653   0.00004   0.00000  -0.00351  -0.00350   2.10303
    A7        2.10842  -0.00152   0.00000  -0.00522  -0.00533   2.10309
    A8        2.08843  -0.00065   0.00000  -0.00575  -0.00577   2.08266
    A9        2.08634   0.00217   0.00000   0.01096   0.01093   2.09727
   A10        2.07023   0.00358   0.00000   0.01072   0.01066   2.08090
   A11        2.10107  -0.00440   0.00000  -0.01537  -0.01534   2.08572
   A12        2.11124   0.00082   0.00000   0.00484   0.00486   2.11609
   A13        2.08312   0.00120   0.00000   0.00239   0.00232   2.08544
   A14        2.05936  -0.00045   0.00000  -0.00054  -0.00051   2.05884
   A15        2.14029  -0.00075   0.00000  -0.00170  -0.00167   2.13862
   A16        2.09748  -0.00056   0.00000   0.00174   0.00170   2.09918
   A17        2.09294   0.00066   0.00000   0.00060   0.00062   2.09355
   A18        2.09277  -0.00010   0.00000  -0.00233  -0.00231   2.09045
   A19        1.98560   0.00663   0.00000   0.02558   0.02557   2.01118
   A20        2.13747   0.00292   0.00000   0.01123   0.01121   2.14868
   A21        2.15985  -0.00955   0.00000  -0.03701  -0.03702   2.12283
   A22        1.93266   0.00417   0.00000   0.02819   0.02806   1.96072
   A23        1.91113  -0.00175   0.00000  -0.01070  -0.01071   1.90042
   A24        1.90699   0.00291   0.00000   0.01417   0.01406   1.92105
   A25        1.89373   0.00006   0.00000   0.00648   0.00644   1.90017
   A26        1.90907  -0.00346   0.00000  -0.01973  -0.01994   1.88912
   A27        1.91012  -0.00203   0.00000  -0.01908  -0.01906   1.89106
   A28        1.93251   0.01181   0.00000   0.05207   0.05156   1.98407
   A29        1.92361  -0.00152   0.00000  -0.01347  -0.01273   1.91088
   A30        1.94336  -0.00369   0.00000   0.00039  -0.00099   1.94237
   A31        1.92101  -0.00926   0.00000  -0.07285  -0.07234   1.84867
   A32        1.88453  -0.00046   0.00000   0.02147   0.02048   1.90500
   A33        1.85705   0.00255   0.00000   0.00977   0.00997   1.86702
   A34        1.94989  -0.01307   0.00000  -0.04955  -0.04916   1.90072
   A35        1.92660   0.00034   0.00000  -0.00722  -0.00675   1.91986
   A36        1.91035   0.00180   0.00000  -0.00436  -0.00414   1.90620
   A37        1.86741   0.00935   0.00000   0.06670   0.06649   1.93390
   A38        1.89019   0.00643   0.00000   0.03862   0.03818   1.92838
   A39        1.91865  -0.00469   0.00000  -0.04297  -0.04404   1.87462
   A40        2.15047  -0.00367   0.00000  -0.01618  -0.01623   2.13423
   A41        2.07400   0.00119   0.00000   0.00404   0.00399   2.07799
   A42        2.05829   0.00246   0.00000   0.01161   0.01155   2.06984
   A43        1.83442   0.00656   0.00000   0.03894   0.03894   1.87336
    D1       -0.00531   0.00004   0.00000   0.00105   0.00102  -0.00429
    D2        3.13456   0.00012   0.00000   0.00419   0.00414   3.13871
    D3        3.13962   0.00012   0.00000   0.00313   0.00316  -3.14041
    D4       -0.00369   0.00020   0.00000   0.00627   0.00628   0.00259
    D5        0.02783  -0.00048   0.00000  -0.01814  -0.01810   0.00974
    D6        3.13104  -0.00035   0.00000  -0.01240  -0.01236   3.11869
    D7       -3.11717  -0.00054   0.00000  -0.02018  -0.02015  -3.13732
    D8       -0.01395  -0.00041   0.00000  -0.01444  -0.01442  -0.02837
    D9       -0.00839   0.00015   0.00000   0.00488   0.00482  -0.00357
   D10        3.13576   0.00009   0.00000   0.00323   0.00319   3.13894
   D11        3.13495   0.00006   0.00000   0.00169   0.00167   3.13662
   D12       -0.00410   0.00000   0.00000   0.00004   0.00004  -0.00406
   D13        0.02385  -0.00068   0.00000  -0.02428  -0.02420  -0.00035
   D14        3.13523  -0.00057   0.00000  -0.01901  -0.01891   3.11633
   D15       -3.11723  -0.00013   0.00000  -0.00534  -0.00538  -3.12261
   D16       -0.00584  -0.00002   0.00000  -0.00006  -0.00009  -0.00594
   D17       -0.00104   0.00018   0.00000   0.00689   0.00691   0.00587
   D18        3.13801   0.00024   0.00000   0.00854   0.00854  -3.13664
   D19        3.14004  -0.00037   0.00000  -0.01204  -0.01207   3.12797
   D20       -0.00410  -0.00031   0.00000  -0.01039  -0.01044  -0.01454
   D21       -0.03659   0.00072   0.00000   0.02917   0.02926  -0.00733
   D22        3.13668   0.00060   0.00000   0.02361   0.02369  -3.12282
   D23       -3.13957   0.00071   0.00000   0.02386   0.02388  -3.11569
   D24        0.03370   0.00059   0.00000   0.01830   0.01831   0.05200
   D25        0.28122  -0.00130   0.00000  -0.03733  -0.03727   0.24395
   D26        2.35688   0.00223   0.00000   0.00964   0.00959   2.36647
   D27       -1.81222  -0.00221   0.00000  -0.05118  -0.05116  -1.86338
   D28       -2.89967  -0.00111   0.00000  -0.03134  -0.03130  -2.93096
   D29       -0.82400   0.00242   0.00000   0.01563   0.01556  -0.80844
   D30        1.29008  -0.00202   0.00000  -0.04519  -0.04519   1.24489
   D31       -1.56364   0.00365   0.00000   0.07448   0.07464  -1.48899
   D32        0.56604  -0.00114   0.00000   0.00835   0.00833   0.57437
   D33        2.62268  -0.00124   0.00000   0.01215   0.01199   2.63468
   D34        1.54669   0.00380   0.00000   0.08002   0.08018   1.62687
   D35       -2.60682  -0.00099   0.00000   0.01388   0.01387  -2.59295
   D36       -0.55017  -0.00110   0.00000   0.01768   0.01754  -0.53264
   D37        0.66903  -0.00035   0.00000  -0.00297  -0.00285   0.66618
   D38        2.75653   0.00121   0.00000   0.01578   0.01586   2.77239
   D39       -1.43482  -0.00056   0.00000  -0.00539  -0.00543  -1.44024
   D40       -2.49635  -0.00062   0.00000  -0.01239  -0.01237  -2.50872
   D41       -0.40885   0.00094   0.00000   0.00636   0.00634  -0.40251
   D42        1.68299  -0.00083   0.00000  -0.01480  -0.01495   1.66804
   D43       -3.13391  -0.00041   0.00000  -0.01509  -0.01504   3.13424
   D44       -0.02432  -0.00087   0.00000  -0.03483  -0.03472  -0.05904
   D45        0.03182  -0.00034   0.00000  -0.00631  -0.00641   0.02541
   D46        3.14141  -0.00079   0.00000  -0.02604  -0.02610   3.11532
   D47        1.70629  -0.00120   0.00000  -0.03813  -0.03888   1.66741
   D48       -1.40357  -0.00072   0.00000  -0.01845  -0.01916  -1.42273
   D49       -0.42490  -0.00092   0.00000  -0.00673  -0.00653  -0.43143
   D50        2.74842  -0.00044   0.00000   0.01296   0.01319   2.76161
   D51       -2.44523   0.00127   0.00000   0.00864   0.00914  -2.43609
   D52        0.72810   0.00175   0.00000   0.02833   0.02886   0.75695
   D53       -3.13094   0.00056   0.00000   0.02565   0.02550  -3.10545
   D54        1.04178   0.00186   0.00000   0.02082   0.02200   1.06379
   D55       -1.02570  -0.00107   0.00000   0.01494   0.01392  -1.01179
         Item               Value     Threshold  Converged?
 Maximum Force            0.017499     0.000450     NO 
 RMS     Force            0.004062     0.000300     NO 
 Maximum Displacement     0.506757     0.001800     NO 
 RMS     Displacement     0.113567     0.001200     NO 
 Predicted change in Energy=-4.585918D-03
 GradGradGradGradGradGradGradGradGradGradGradGradGradGradGradGradGradGrad

                          Input orientation:                          
 ---------------------------------------------------------------------
 Center     Atomic      Atomic             Coordinates (Angstroms)
 Number     Number       Type             X           Y           Z
 ---------------------------------------------------------------------
      1          6           0        1.616967   -2.062200   -0.142712
      2          6           0        0.700960   -1.105609    0.290603
      3          6           0        2.128658   -0.633049    2.184038
      4          6           0        2.793575   -2.312555    0.567110
      5          6           0        3.050239   -1.591488    1.748185
      6          6           0        0.963792   -0.389865    1.457699
      7          6           0        5.601063    0.307135    2.907534
      8          6           0        6.769545    1.150431    2.413675
      9          6           0        4.319708   -1.786633    2.567882
     10          6           0        3.745398   -3.380016    0.077709
     11          7           0        5.390423   -0.859004    2.219562
     12          8           0        4.912093    0.617598    3.872021
     13          8           0        3.390706   -3.738878   -1.260439
     14         17           0       -0.170824    0.816919    2.015480
     15          1           0        1.417342   -2.620564   -1.050463
     16          1           0       -0.206915   -0.922460   -0.275103
     17          1           0        2.337719   -0.065768    3.085809
     18          1           0        6.858192    1.140420    1.321315
     19          1           0        6.627959    2.179531    2.746778
     20          1           0        7.708776    0.776656    2.837528
     21          1           0        4.102490   -1.610598    3.622980
     22          1           0        4.692908   -2.813931    2.485105
     23          1           0        4.781418   -3.009703    0.121755
     24          1           0        3.680058   -4.256930    0.742562
     25          1           0        5.966255   -1.065432    1.416662
     26          1           0        3.992493   -4.445683   -1.539033
 ---------------------------------------------------------------------
                    Distance matrix (angstroms):
                    1          2          3          4          5
     1  C    0.000000
     2  C    1.393520   0.000000
     3  C    2.778141   2.418002   0.000000
     4  C    1.396757   2.431504   2.424316   0.000000
     5  C    2.418952   2.807087   1.399244   1.407392   0.000000
     6  C    2.405132   1.394089   1.394137   2.799641   2.425189
     7  C    5.548942   5.731944   3.669467   4.496926   3.384606
     8  C    6.588260   6.813580   4.977084   5.586627   4.668429
     9  C    3.837716   4.329565   2.505752   2.570752   1.523659
    10  C    2.513054   3.806160   3.820510   1.511607   2.544125
    11  N    4.611614   5.076688   3.269775   3.403972   2.497036
    12  O    5.844421   5.790479   3.487251   4.898607   3.585700
    13  O    2.684532   4.071188   4.806596   2.393930   3.712010
    14  Cl   4.017874   2.726044   2.723680   4.547421   4.030771
    15  H    1.084266   2.146334   3.862406   2.146027   3.399674
    16  H    2.154781   1.085266   3.403827   3.412422   3.892345
    17  H    3.863751   3.401974   1.085682   3.405833   2.150522
    18  H    6.314316   6.634646   5.124254   5.386369   4.705959
    19  H    7.172968   7.207930   5.335822   6.295418   5.293189
    20  H    7.351943   7.690204   5.792412   6.233557   5.338234
    21  H    4.534556   4.788545   2.631001   3.397697   2.149989
    22  H    4.114843   4.865168   3.379684   2.745460   2.176185
    23  H    3.313828   4.506021   4.115657   2.153109   2.766513
    24  H    3.139569   4.360060   4.197286   2.144116   2.917624
    25  H    4.726680   5.384511   3.937382   3.513254   2.981576
    26  H    3.643326   5.033672   5.645469   3.228542   4.454220
                    6          7          8          9         10
     6  C    0.000000
     7  C    4.908371   0.000000
     8  C    6.082200   1.523284   0.000000
     9  C    3.800742   2.478123   3.827769   0.000000
    10  C    4.310766   5.004646   5.926817   3.011589   0.000000
    11  N    4.516147   1.370239   2.444890   1.458852   3.694475
    12  O    4.736350   1.225276   2.420911   2.798575   5.633729
    13  O    4.949149   6.215134   6.987203   4.396629   1.430114
    14  Cl   1.747798   5.862620   6.959778   5.220010   6.058548
    15  H    3.387123   6.460702   7.407208   4.712918   2.696179
    16  H    2.157966   6.736000   7.758698   5.414765   4.667422
    17  H    2.154867   3.289415   4.644565   2.675426   4.691958
    18  H    6.091332   2.188796   1.095996   4.070069   5.627645
    19  H    6.351874   2.141548   1.090895   4.592437   6.807471
    20  H    6.982801   2.160511   1.096136   4.257809   6.372041
    21  H    4.003755   2.536786   4.024783   1.091515   3.978354
    22  H    4.564862   3.277841   4.475901   1.096117   2.648355
    23  H    4.818980   4.408378   5.149006   2.773556   1.101095
    24  H    4.779510   5.404447   6.448030   3.137405   1.102396
    25  H    5.048040   2.059127   2.559171   2.134608   3.475961
    26  H    5.882439   6.704381   7.392727   4.903506   1.952065
                   11         12         13         14         15
    11  N    0.000000
    12  O    2.267107   0.000000
    13  O    4.939934   6.901858   0.000000
    14  Cl   5.811870   5.415027   6.646158   0.000000
    15  H    5.438890   6.850535   2.277912   4.872223   0.000000
    16  H    6.128423   6.765698   4.673967   2.876371   2.474459
    17  H    3.270873   2.777143   5.787088   2.866623   4.948012
    18  H    2.637971   3.250652   6.518931   7.070614   7.026605
    19  H    3.322973   2.578759   7.846347   6.972443   8.038064
    20  H    2.903796   2.986119   7.471889   7.922467   8.138779
    21  H    2.047742   2.383765   5.374383   5.170890   5.483714
    22  H    2.092554   3.707691   4.071898   6.087652   4.823584
    23  H    3.065483   5.219088   2.091946   6.538649   3.583648
    24  H    4.080781   5.922199   2.089047   6.495656   3.318512
    25  H    1.009378   3.157947   4.576859   6.447136   5.403495
    26  H    5.380103   7.467395   0.969193   7.593599   3.193926
                   16         17         18         19         20
    16  H    0.000000
    17  H    4.301722   0.000000
    18  H    7.531253   5.000301   0.000000
    19  H    8.091330   4.854119   1.778961   0.000000
    20  H    8.673733   5.442387   1.776153   1.773262   0.000000
    21  H    5.851458   2.406131   4.523235   4.637974   4.395591
    22  H    5.933353   3.668810   4.656152   5.361675   4.702338
    23  H    5.421951   4.839839   4.793272   6.101525   5.502851
    24  H    5.221388   4.985832   6.290220   7.357651   6.779118
    25  H    6.402386   4.117239   2.381266   3.568872   2.906635
    26  H    5.625446   6.581117   6.899157   8.319094   7.761307
                   21         22         23         24         25
    21  H    0.000000
    22  H    1.758228   0.000000
    23  H    3.831060   2.373096   0.000000
    24  H    3.934251   2.478823   1.775942   0.000000
    25  H    2.939160   2.412515   2.619315   3.983311   0.000000
    26  H    5.890347   4.398509   2.332951   2.310610   4.904892
                   26
    26  H    0.000000
 Stoichiometry    C10H12ClNO2
 Framework group  C1[X(C10H12ClNO2)]
 Deg. of freedom    72
 Full point group                 C1      NOp   1
 Largest Abelian subgroup         C1      NOp   1
 Largest concise Abelian subgroup C1      NOp   1
                         Standard orientation:                         
 ---------------------------------------------------------------------
 Center     Atomic      Atomic             Coordinates (Angstroms)
 Number     Number       Type             X           Y           Z
 ---------------------------------------------------------------------
      1          6           0       -2.169282    1.147802    0.352360
      2          6           0       -2.629977   -0.164141    0.444364
      3          6           0       -0.537000   -0.937543   -0.487317
      4          6           0       -0.897444    1.435709   -0.148106
      5          6           0       -0.072608    0.379304   -0.577532
      6          6           0       -1.805893   -1.206873    0.023556
      7          6           0        3.071157   -0.661922    0.121145
      8          6           0        4.126071   -0.591382    1.217764
      9          6           0        1.335730    0.605088   -1.113388
     10          6           0       -0.449089    2.875082   -0.258276
     11          7           0        2.374400    0.498054   -0.094586
     12          8           0        2.872783   -1.665523   -0.553196
     13          8           0       -1.342462    3.697739    0.496937
     14         17           0       -2.364012   -2.859438    0.134600
     15          1           0       -2.806265    1.961983    0.679462
     16          1           0       -3.620163   -0.369386    0.838331
     17          1           0        0.108218   -1.751735   -0.802736
     18          1           0        3.799562    0.013140    2.071669
     19          1           0        4.343620   -1.602725    1.564042
     20          1           0        5.050919   -0.155544    0.822521
     21          1           0        1.568116   -0.157314   -1.859139
     22          1           0        1.420516    1.577266   -1.612541
     23          1           0        0.583206    2.977280    0.110960
     24          1           0       -0.451254    3.175645   -1.318905
     25          1           0        2.552838    1.294767    0.498921
     26          1           0       -1.054464    4.616232    0.383966
 ---------------------------------------------------------------------
 Rotational constants (GHZ):      0.5874298      0.4458868      0.2731157
 Standard basis: 6-31G(d) (6D, 7F)
 There are   238 symmetry adapted basis functions of A   symmetry.
 Integral buffers will be    131072 words long.
 Raffenetti 2 integral format.
 Two-electron integral symmetry is turned on.
   238 basis functions,   464 primitive gaussians,   238 cartesian basis functions
    56 alpha electrons       56 beta electrons
       nuclear repulsion energy       956.2828508932 Hartrees.
 NAtoms=   26 NActive=   26 NUniq=   26 SFac= 1.00D+00 NAtFMM=   60 NAOKFM=F Big=F
 One-electron integrals computed using PRISM.
 NBasis=   238 RedAO= T  NBF=   238
 NBsUse=   238 1.00D-06 NBFU=   238
 Initial guess read from the read-write file.
 B after Tr=     0.000000    0.000000    0.000000
         Rot=    1.000000    0.000000    0.000000    0.000000 Ang=   0.00 deg.
 Initial guess orbital symmetries:
       Occupied  (A) (A) (A) (A) (A) (A) (A) (A) (A) (A) (A) (A)
                 (A) (A) (A) (A) (A) (A) (A) (A) (A) (A) (A) (A)
                 (A) (A) (A) (A) (A) (A) (A) (A) (A) (A) (A) (A)
                 (A) (A) (A) (A) (A) (A) (A) (A) (A) (A) (A) (A)
                 (A) (A) (A) (A) (A) (A) (A) (A)
       Virtual   (A) (A) (A) (A) (A) (A) (A) (A) (A) (A) (A) (A)
                 (A) (A) (A) (A) (A) (A) (A) (A) (A) (A) (A) (A)
                 (A) (A) (A) (A) (A) (A) (A) (A) (A) (A) (A) (A)
                 (A) (A) (A) (A) (A) (A) (A) (A) (A) (A) (A) (A)
                 (A) (A) (A) (A) (A) (A) (A) (A) (A) (A) (A) (A)
                 (A) (A) (A) (A) (A) (A) (A) (A) (A) (A) (A) (A)
                 (A) (A) (A) (A) (A) (A) (A) (A) (A) (A) (A) (A)
                 (A) (A) (A) (A) (A) (A) (A) (A) (A) (A) (A) (A)
                 (A) (A) (A) (A) (A) (A) (A) (A) (A) (A) (A) (A)
                 (A) (A) (A) (A) (A) (A) (A) (A) (A) (A) (A) (A)
                 (A) (A) (A) (A) (A) (A) (A) (A) (A) (A) (A) (A)
                 (A) (A) (A) (A) (A) (A) (A) (A) (A) (A) (A) (A)
                 (A) (A) (A) (A) (A) (A) (A) (A) (A) (A) (A) (A)
                 (A) (A) (A) (A) (A) (A) (A) (A) (A) (A) (A) (A)
                 (A) (A) (A) (A) (A) (A) (A) (A) (A) (A) (A) (A)
                 (A) (A)
 Harris functional with IExCor=  402 diagonalized for initial guess.
 ExpMin= 1.43D-01 ExpMax= 2.52D+04 ExpMxC= 3.78D+03 IAcc=3 IRadAn=         5 AccDes= 0.00D+00
 HarFok:  IExCor=  402 AccDes= 0.00D+00 IRadAn=         5 IDoV= 1
 ScaDFX=  1.000000  1.000000  1.000000  1.000000
 FoFCou: FMM=F IPFlag=           0 FMFlag=      100000 FMFlg1=           0
         NFxFlg=           0 DoJE=T BraDBF=F KetDBF=T FulRan=T
         Omega=  0.000000  0.000000  1.000000  0.000000  0.000000 ICntrl=     500 IOpCl=  0
         NMat0=    1 NMatS0=    1 NMatT0=    0 NMatD0=    1 NMtDS0=    0 NMtDT0=    0
         I1Cent=           4 NGrid=           0.
 Petite list used in FoFCou.
 Requested convergence on RMS density matrix=1.00D-08 within 128 cycles.
 Requested convergence on MAX density matrix=1.00D-06.
 Requested convergence on             energy=1.00D-06.
 No special actions if energy rises.
 Integral accuracy reduced to 1.0D-05 until final iterations.
 Initial convergence to 1.0D-05 achieved.  Increase integral accuracy.
 SCF Done:  E(RB3LYP) =  -1053.68654617     A.U. after   13 cycles
             Convg  =    0.7382D-08             -V/T =  2.0066
 Calling FoFJK, ICntrl=      2127 FMM=F ISym2X=0 I1Cent= 0 IOpClX= 0 NMat=1 NMatS=1 NMatT=0.
 ***** Axes restored to original set *****
 -------------------------------------------------------------------
 Center     Atomic                   Forces (Hartrees/Bohr)
 Number     Number              X              Y              Z
 -------------------------------------------------------------------
      1        6          -0.001512941    0.000743109   -0.000270001
      2        6          -0.001306978    0.001092215    0.000115080
      3        6          -0.000716236    0.002203806    0.001421043
      4        6          -0.000798483    0.000631964    0.001572650
      5        6          -0.000336548    0.000471934   -0.000545343
      6        6           0.005178794   -0.005776430   -0.002773120
      7        6          -0.002649813   -0.001921108    0.001317529
      8        6          -0.000860433    0.000047543   -0.000620258
      9        6          -0.002158557   -0.001154749    0.001303603
     10        6          -0.003283387   -0.000893836   -0.006296163
     11        7           0.003829653   -0.001600874   -0.001748933
     12        8           0.001125860    0.002790818    0.000435783
     13        8           0.004305656   -0.000050841    0.005047266
     14       17          -0.003043739    0.003049016    0.001496066
     15        1           0.000596453    0.000167679    0.000557254
     16        1          -0.000103003    0.000491473    0.000469212
     17        1           0.000094648    0.000013846   -0.000145151
     18        1           0.000214280   -0.000705725    0.000239480
     19        1          -0.000373920   -0.000085427    0.000745141
     20        1           0.000099372   -0.000125694    0.000148415
     21        1          -0.000451819    0.000406429    0.000288147
     22        1           0.000870148    0.001207826   -0.000900347
     23        1           0.000784344   -0.000910992   -0.000610825
     24        1           0.001619189   -0.000811308    0.000086310
     25        1          -0.000391727    0.000763109   -0.001286045
     26        1          -0.000730812   -0.000043782   -0.000046794
 -------------------------------------------------------------------
 Cartesian Forces:  Max     0.006296163 RMS     0.001847164

 GradGradGradGradGradGradGradGradGradGradGradGradGradGradGradGradGradGrad
 Berny optimization.
 Using GEDIIS/GDIIS optimizer.
 Internal  Forces:  Max     0.005541877 RMS     0.001151177
 Search for a local minimum.
 Step number   2 out of a maximum of  134
 All quantities printed in internal units (Hartrees-Bohrs-Radians)
 Mixed Optimization -- RFO/linear search
 Update second derivatives using D2CorX and points    1    2
 DE= -4.12D-03 DEPred=-4.59D-03 R= 8.98D-01
 SS=  1.41D+00  RLast= 2.57D-01 DXNew= 5.0454D-01 7.7038D-01
 Trust test= 8.98D-01 RLast= 2.57D-01 DXMaxT set to 5.05D-01
 ITU=  1  0
 Use linear search instead of GDIIS.
     Eigenvalues ---    0.00559   0.00586   0.00707   0.01080   0.01242
     Eigenvalues ---    0.01343   0.01368   0.01415   0.01473   0.01951
     Eigenvalues ---    0.02050   0.02055   0.02061   0.02079   0.02181
     Eigenvalues ---    0.02186   0.02216   0.05050   0.06384   0.06497
     Eigenvalues ---    0.07105   0.07244   0.07488   0.10209   0.11573
     Eigenvalues ---    0.13527   0.13902   0.15566   0.15987   0.15997
     Eigenvalues ---    0.16000   0.16000   0.16000   0.16000   0.16078
     Eigenvalues ---    0.21206   0.22007   0.22368   0.22644   0.23532
     Eigenvalues ---    0.24604   0.24967   0.24985   0.24993   0.25000
     Eigenvalues ---    0.27102   0.30370   0.31171   0.32014   0.32832
     Eigenvalues ---    0.34128   0.34250   0.34331   0.34374   0.34402
     Eigenvalues ---    0.34442   0.34495   0.34771   0.34865   0.35099
     Eigenvalues ---    0.38627   0.40765   0.41169   0.42911   0.44488
     Eigenvalues ---    0.45274   0.45743   0.46038   0.47158   0.50641
     Eigenvalues ---    0.51663   0.91455
 RFO step:  Lambda=-7.79818138D-04 EMin= 5.58925541D-03
 Quartic linear search produced a step of -0.03802.
 Iteration  1 RMS(Cart)=  0.04046455 RMS(Int)=  0.00047484
 Iteration  2 RMS(Cart)=  0.00074601 RMS(Int)=  0.00003116
 Iteration  3 RMS(Cart)=  0.00000022 RMS(Int)=  0.00003116
 Variable       Old X    -DE/DX   Delta X   Delta X   Delta X     New X
                                 (Linear)    (Quad)   (Total)
    R1        2.63337   0.00062   0.00022   0.00065   0.00087   2.63424
    R2        2.63949   0.00150   0.00081   0.00093   0.00175   2.64123
    R3        2.04897  -0.00066   0.00043  -0.00311  -0.00269   2.04628
    R4        2.63445  -0.00113  -0.00039  -0.00121  -0.00160   2.63285
    R5        2.05086  -0.00008   0.00016  -0.00070  -0.00054   2.05032
    R6        2.64419   0.00023   0.00073  -0.00175  -0.00102   2.64317
    R7        2.63454  -0.00115  -0.00013  -0.00211  -0.00224   2.63230
    R8        2.05164  -0.00010   0.00028  -0.00112  -0.00084   2.05080
    R9        2.65959   0.00047   0.00057  -0.00055   0.00002   2.65961
   R10        2.85652   0.00420   0.00029   0.01218   0.01247   2.86899
   R11        2.87930  -0.00062  -0.00072   0.00028  -0.00044   2.87886
   R12        3.30286   0.00456  -0.00194   0.01891   0.01697   3.31983
   R13        2.87859  -0.00135  -0.00135   0.00005  -0.00131   2.87728
   R14        2.58938   0.00076   0.00013   0.00105   0.00118   2.59056
   R15        2.31544   0.00042   0.00028  -0.00041  -0.00013   2.31530
   R16        2.07113  -0.00022  -0.00016  -0.00011  -0.00027   2.07086
   R17        2.06149   0.00020   0.00018  -0.00002   0.00017   2.06166
   R18        2.07140   0.00019  -0.00021   0.00116   0.00095   2.07234
   R19        2.75683   0.00038  -0.00090   0.00368   0.00277   2.75960
   R20        2.06266   0.00043   0.00035   0.00015   0.00050   2.06317
   R21        2.07136  -0.00077  -0.00012  -0.00178  -0.00190   2.06946
   R22        2.70252  -0.00554  -0.00028  -0.01191  -0.01220   2.69033
   R23        2.08077   0.00041  -0.00052   0.00272   0.00220   2.08296
   R24        2.08323   0.00060  -0.00055   0.00335   0.00280   2.08602
   R25        1.90745   0.00064   0.00044   0.00002   0.00047   1.90791
   R26        1.83151  -0.00041   0.00065  -0.00274  -0.00208   1.82943
    A1        2.11618   0.00003   0.00003   0.00056   0.00059   2.11677
    A2        2.08611   0.00049  -0.00078   0.00507   0.00429   2.09040
    A3        2.08088  -0.00052   0.00074  -0.00564  -0.00489   2.07599
    A4        2.08154  -0.00064   0.00030  -0.00376  -0.00346   2.07808
    A5        2.09861   0.00102  -0.00044   0.00692   0.00648   2.10510
    A6        2.10303  -0.00038   0.00013  -0.00316  -0.00303   2.10000
    A7        2.10309  -0.00124   0.00020  -0.00627  -0.00605   2.09704
    A8        2.08266   0.00056   0.00022   0.00181   0.00203   2.08469
    A9        2.09727   0.00068  -0.00042   0.00447   0.00405   2.10132
   A10        2.08090  -0.00101  -0.00041  -0.00195  -0.00235   2.07855
   A11        2.08572   0.00204   0.00058   0.00574   0.00632   2.09204
   A12        2.11609  -0.00103  -0.00018  -0.00368  -0.00387   2.11223
   A13        2.08544   0.00103  -0.00009   0.00458   0.00449   2.08993
   A14        2.05884  -0.00031   0.00002  -0.00134  -0.00134   2.05750
   A15        2.13862  -0.00071   0.00006  -0.00301  -0.00296   2.13565
   A16        2.09918   0.00185  -0.00006   0.00686   0.00680   2.10598
   A17        2.09355  -0.00098  -0.00002  -0.00350  -0.00352   2.09003
   A18        2.09045  -0.00086   0.00009  -0.00337  -0.00328   2.08717
   A19        2.01118  -0.00196  -0.00097  -0.00448  -0.00546   2.00572
   A20        2.14868  -0.00248  -0.00043  -0.00815  -0.00858   2.14010
   A21        2.12283   0.00445   0.00141   0.01282   0.01422   2.13705
   A22        1.96072  -0.00007  -0.00107   0.00353   0.00247   1.96319
   A23        1.90042  -0.00081   0.00041  -0.00560  -0.00520   1.89522
   A24        1.92105  -0.00015  -0.00053  -0.00041  -0.00094   1.92011
   A25        1.90017   0.00087  -0.00024   0.00818   0.00794   1.90811
   A26        1.88912  -0.00003   0.00076  -0.00339  -0.00262   1.88650
   A27        1.89106   0.00021   0.00072  -0.00237  -0.00166   1.88940
   A28        1.98407   0.00031  -0.00196   0.00579   0.00385   1.98792
   A29        1.91088  -0.00025   0.00048  -0.00104  -0.00058   1.91030
   A30        1.94237   0.00040   0.00004   0.00161   0.00170   1.94407
   A31        1.84867   0.00010   0.00275  -0.00694  -0.00421   1.84445
   A32        1.90500  -0.00112  -0.00078  -0.00824  -0.00899   1.89602
   A33        1.86702   0.00056  -0.00038   0.00874   0.00834   1.87535
   A34        1.90072   0.00370   0.00187   0.01280   0.01460   1.91532
   A35        1.91986   0.00016   0.00026   0.00328   0.00353   1.92338
   A36        1.90620   0.00021   0.00016   0.00626   0.00637   1.91257
   A37        1.93390  -0.00202  -0.00253  -0.00456  -0.00714   1.92677
   A38        1.92838  -0.00136  -0.00145  -0.00030  -0.00185   1.92652
   A39        1.87462  -0.00075   0.00167  -0.01768  -0.01599   1.85862
   A40        2.13423  -0.00149   0.00062  -0.00865  -0.00818   2.12605
   A41        2.07799   0.00048  -0.00015   0.00163   0.00132   2.07931
   A42        2.06984   0.00098  -0.00044   0.00555   0.00495   2.07479
   A43        1.87336   0.00069  -0.00148   0.00862   0.00714   1.88050
    D1       -0.00429  -0.00001  -0.00004  -0.00022  -0.00025  -0.00454
    D2        3.13871  -0.00001  -0.00016   0.00044   0.00028   3.13899
    D3       -3.14041   0.00005  -0.00012   0.00292   0.00281  -3.13759
    D4        0.00259   0.00006  -0.00024   0.00358   0.00335   0.00594
    D5        0.00974   0.00001   0.00069  -0.00247  -0.00179   0.00795
    D6        3.11869   0.00004   0.00047   0.00145   0.00193   3.12061
    D7       -3.13732  -0.00005   0.00077  -0.00557  -0.00480   3.14107
    D8       -0.02837  -0.00002   0.00055  -0.00165  -0.00108  -0.02946
    D9       -0.00357   0.00004  -0.00018   0.00271   0.00253  -0.00104
   D10        3.13894   0.00009  -0.00012   0.00453   0.00441  -3.13984
   D11        3.13662   0.00004  -0.00006   0.00206   0.00201   3.13862
   D12       -0.00406   0.00009   0.00000   0.00388   0.00388  -0.00018
   D13       -0.00035   0.00009   0.00092  -0.00015   0.00075   0.00040
   D14        3.11633   0.00022   0.00072   0.00995   0.01067   3.12700
   D15       -3.12261   0.00002   0.00020  -0.00097  -0.00078  -3.12339
   D16       -0.00594   0.00015   0.00000   0.00912   0.00914   0.00321
   D17        0.00587  -0.00008  -0.00026  -0.00253  -0.00280   0.00307
   D18       -3.13664  -0.00013  -0.00032  -0.00435  -0.00467  -3.14131
   D19        3.12797  -0.00001   0.00046  -0.00173  -0.00127   3.12669
   D20       -0.01454  -0.00006   0.00040  -0.00355  -0.00315  -0.01769
   D21       -0.00733  -0.00005  -0.00111   0.00263   0.00152  -0.00581
   D22       -3.12282  -0.00019  -0.00090  -0.00798  -0.00889  -3.13171
   D23       -3.11569  -0.00014  -0.00091  -0.00154  -0.00243  -3.11812
   D24        0.05200  -0.00028  -0.00070  -0.01215  -0.01284   0.03916
   D25        0.24395   0.00004   0.00142  -0.03295  -0.03152   0.21243
   D26        2.36647   0.00001  -0.00036  -0.02835  -0.02869   2.33778
   D27       -1.86338  -0.00069   0.00195  -0.04418  -0.04228  -1.90566
   D28       -2.93096   0.00007   0.00119  -0.02891  -0.02770  -2.95866
   D29       -0.80844   0.00004  -0.00059  -0.02431  -0.02487  -0.83331
   D30        1.24489  -0.00065   0.00172  -0.04013  -0.03846   1.20643
   D31       -1.48899  -0.00020  -0.00284   0.03542   0.03259  -1.45641
   D32        0.57437  -0.00004  -0.00032   0.02962   0.02931   0.60368
   D33        2.63468   0.00074  -0.00046   0.04072   0.04029   2.67496
   D34        1.62687  -0.00004  -0.00305   0.04596   0.04290   1.66977
   D35       -2.59295   0.00011  -0.00053   0.04016   0.03962  -2.55333
   D36       -0.53264   0.00090  -0.00067   0.05127   0.05060  -0.48204
   D37        0.66618  -0.00040   0.00011  -0.01791  -0.01779   0.64839
   D38        2.77239   0.00010  -0.00060  -0.00918  -0.00977   2.76262
   D39       -1.44024  -0.00021   0.00021  -0.01568  -0.01545  -1.45569
   D40       -2.50872  -0.00023   0.00047  -0.01112  -0.01067  -2.51939
   D41       -0.40251   0.00027  -0.00024  -0.00239  -0.00265  -0.40517
   D42        1.66804  -0.00005   0.00057  -0.00889  -0.00834   1.65971
   D43        3.13424  -0.00011   0.00057   0.00078   0.00136   3.13560
   D44       -0.05904  -0.00061   0.00132  -0.03296  -0.03160  -0.09064
   D45        0.02541  -0.00013   0.00024  -0.00546  -0.00526   0.02014
   D46        3.11532  -0.00063   0.00099  -0.03921  -0.03822   3.07710
   D47        1.66741  -0.00013   0.00148  -0.00890  -0.00740   1.66001
   D48       -1.42273   0.00039   0.00073   0.02481   0.02557  -1.39715
   D49       -0.43143  -0.00007   0.00025  -0.00632  -0.00609  -0.43752
   D50        2.76161   0.00044  -0.00050   0.02738   0.02689   2.78850
   D51       -2.43609  -0.00024  -0.00035  -0.00897  -0.00936  -2.44545
   D52        0.75695   0.00027  -0.00110   0.02473   0.02362   0.78057
   D53       -3.10545   0.00014  -0.00097   0.01958   0.01859  -3.08685
   D54        1.06379  -0.00120  -0.00084   0.01004   0.00922   1.07300
   D55       -1.01179   0.00190  -0.00053   0.03515   0.03462  -0.97716
         Item               Value     Threshold  Converged?
 Maximum Force            0.005542     0.000450     NO 
 RMS     Force            0.001151     0.000300     NO 
 Maximum Displacement     0.163950     0.001800     NO 
 RMS     Displacement     0.040409     0.001200     NO 
 Predicted change in Energy=-4.071234D-04
 GradGradGradGradGradGradGradGradGradGradGradGradGradGradGradGradGradGrad

                          Input orientation:                          
 ---------------------------------------------------------------------
 Center     Atomic      Atomic             Coordinates (Angstroms)
 Number     Number       Type             X           Y           Z
 ---------------------------------------------------------------------
      1          6           0        1.600984   -2.065727   -0.142152
      2          6           0        0.696720   -1.098546    0.293787
      3          6           0        2.154798   -0.615220    2.164985
      4          6           0        2.785970   -2.317953    0.554770
      5          6           0        3.061552   -1.584592    1.723967
      6          6           0        0.983169   -0.376525    1.450401
      7          6           0        5.594798    0.304029    2.925135
      8          6           0        6.757021    1.167368    2.453785
      9          6           0        4.335422   -1.789621    2.533938
     10          6           0        3.735001   -3.397719    0.066517
     11          7           0        5.402421   -0.847729    2.207006
     12          8           0        4.901055    0.600271    3.890584
     13          8           0        3.359577   -3.811692   -1.242867
     14         17           0       -0.145123    0.844793    2.017510
     15          1           0        1.391575   -2.630996   -1.041690
     16          1           0       -0.218855   -0.909980   -0.256984
     17          1           0        2.380237   -0.040725    3.057664
     18          1           0        6.862569    1.168812    1.363027
     19          1           0        6.595418    2.188495    2.802252
     20          1           0        7.695981    0.801379    2.886242
     21          1           0        4.121163   -1.636590    3.593496
     22          1           0        4.721066   -2.808308    2.420670
     23          1           0        4.771524   -3.022767    0.068444
     24          1           0        3.710329   -4.254274    0.762398
     25          1           0        5.966350   -1.015420    1.386515
     26          1           0        3.950274   -4.532442   -1.505160
 ---------------------------------------------------------------------
                    Distance matrix (angstroms):
                    1          2          3          4          5
     1  C    0.000000
     2  C    1.393978   0.000000
     3  C    2.780928   2.420946   0.000000
     4  C    1.397680   2.433112   2.427029   0.000000
     5  C    2.418088   2.806080   1.398707   1.407404   0.000000
     6  C    2.402358   1.393242   1.392954   2.796675   2.419491
     7  C    5.565478   5.734315   3.640940   4.514746   3.380388
     8  C    6.616382   6.821085   4.943832   5.614531   4.665019
     9  C    3.835993   4.328512   2.504089   2.568471   1.523429
    10  C    2.524238   3.816936   3.826606   1.518205   2.547176
    11  N    4.631737   5.085955   3.256207   3.425968   2.501192
    12  O    5.853287   5.787862   3.463673   4.910933   3.584916
    13  O    2.711571   4.100399   4.825182   2.406612   3.721680
    14  Cl   4.022953   2.730656   2.728191   4.553447   4.033713
    15  H    1.082843   2.148192   3.863758   2.142666   3.395975
    16  H    2.158877   1.084981   3.403975   3.416183   3.891059
    17  H    3.866095   3.404736   1.085238   3.408059   2.150921
    18  H    6.357049   6.655965   5.097941   5.424893   4.707360
    19  H    7.191126   7.203587   5.290182   6.314360   5.280823
    20  H    7.385151   7.701960   5.764692   6.266913   5.340569
    21  H    4.526646   4.785852   2.636366   3.388340   2.149562
    22  H    4.105411   4.862333   3.385372   2.732513   2.176434
    23  H    3.318523   4.511921   4.127834   2.162336   2.780846
    24  H    3.171322   4.388628   4.198766   2.155664   2.910795
    25  H    4.743036   5.382375   3.910768   3.535988   2.979208
    26  H    3.669011   5.060975   5.660241   3.240814   4.461716
                    6          7          8          9         10
     6  C    0.000000
     7  C    4.889285   0.000000
     8  C    6.060342   1.522593   0.000000
     9  C    3.795852   2.474355   3.822872   0.000000
    10  C    4.314549   5.033237   5.972576   3.005769   0.000000
    11  N    4.508245   1.370863   2.440585   1.460319   3.723497
    12  O    4.717886   1.225206   2.414664   2.805711   5.653945
    13  O    4.970048   6.269578   7.070990   4.393780   1.423659
    14  Cl   1.756779   5.836343   6.923438   5.223229   6.071297
    15  H    3.385255   6.482064   7.445396   4.707363   2.703264
    16  H    2.155134   6.737823   7.767013   5.413359   4.682572
    17  H    2.155888   3.235710   4.580437   2.675010   4.695930
    18  H    6.079723   2.189812   1.095854   4.063229   5.684701
    19  H    6.316974   2.137184   1.090984   4.583120   6.846314
    20  H    6.964980   2.159593   1.096637   4.258023   6.424378
    21  H    4.003451   2.526718   4.013585   1.091782   3.961095
    22  H    4.563646   3.271778   4.466789   1.095114   2.619497
    23  H    4.823280   4.461618   5.214334   2.790966   1.102257
    24  H    4.790374   5.385794   6.444945   3.098969   1.103877
    25  H    5.024377   2.060667   2.555150   2.139134   3.520889
    26  H    5.900059   6.761910   7.485914   4.897521   1.950412
                   11         12         13         14         15
    11  N    0.000000
    12  O    2.276512   0.000000
    13  O    4.985972   6.942182   0.000000
    14  Cl   5.803085   5.388146   6.678011   0.000000
    15  H    5.460856   6.861841   2.303811   4.878653   0.000000
    16  H    6.137904   6.759930   4.711377   2.873671   2.484179
    17  H    3.241678   2.731145   5.802919   2.871151   4.948905
    18  H    2.628834   3.249511   6.623221   7.045643   7.081876
    19  H    3.316055   2.564720   7.926910   6.917822   8.067426
    20  H    2.905398   2.976703   7.558728   7.889202   8.182627
    21  H    2.046039   2.387475   5.357377   5.180945   5.470324
    22  H    2.086568   3.716376   4.035089   6.098154   4.806755
    23  H    3.114846   5.268010   2.082195   6.552121   3.579097
    24  H    4.068736   5.896607   2.083265   6.514622   3.356544
    25  H    1.009624   3.164755   4.639833   6.419397   5.425388
    26  H    5.428261   7.507515   0.968092   7.622082   3.221373
                   16         17         18         19         20
    16  H    0.000000
    17  H    4.300904   0.000000
    18  H    7.555949   4.942274   0.000000
    19  H    8.086643   4.775187   1.783954   0.000000
    20  H    8.686383   5.384762   1.774759   1.772677   0.000000
    21  H    5.847214   2.421719   4.512269   4.623773   4.384430
    22  H    5.930962   3.680321   4.639195   5.350406   4.700715
    23  H    5.428964   4.852449   4.859809   6.160969   5.578219
    24  H    5.259461   4.979095   6.301367   7.348062   6.779068
    25  H    6.400701   4.074676   2.361065   3.558807   2.922596
    26  H    5.662315   6.592412   7.015144   8.409612   7.859032
                   21         22         23         24         25
    21  H    0.000000
    22  H    1.763045   0.000000
    23  H    3.843233   2.362521   0.000000
    24  H    3.877650   2.421213   1.767573   0.000000
    25  H    2.943014   2.415503   2.682231   3.996164   0.000000
    26  H    5.866127   4.356478   2.330193   2.297122   4.979537
                   26
    26  H    0.000000
 Stoichiometry    C10H12ClNO2
 Framework group  C1[X(C10H12ClNO2)]
 Deg. of freedom    72
 Full point group                 C1      NOp   1
 Largest Abelian subgroup         C1      NOp   1
 Largest concise Abelian subgroup C1      NOp   1
                         Standard orientation:                         
 ---------------------------------------------------------------------
 Center     Atomic      Atomic             Coordinates (Angstroms)
 Number     Number       Type             X           Y           Z
 ---------------------------------------------------------------------
      1          6           0       -2.221567    1.071571    0.351143
      2          6           0       -2.627627   -0.259242    0.436155
      3          6           0       -0.488519   -0.943165   -0.467969
      4          6           0       -0.956067    1.414712   -0.132874
      5          6           0       -0.082733    0.392875   -0.549916
      6          6           0       -1.752194   -1.261661    0.023971
      7          6           0        3.088303   -0.577544    0.105711
      8          6           0        4.145863   -0.513702    1.199228
      9          6           0        1.316991    0.681338   -1.077550
     10          6           0       -0.557217    2.875863   -0.237281
     11          7           0        2.364454    0.573943   -0.065709
     12          8           0        2.915438   -1.572092   -0.588638
     13          8           0       -1.497839    3.682342    0.463879
     14         17           0       -2.246415   -2.944706    0.120808
     15          1           0       -2.891401    1.859627    0.671830
     16          1           0       -3.611684   -0.513470    0.815874
     17          1           0        0.195124   -1.728123   -0.774915
     18          1           0        3.817170    0.069963    2.066517
[...]
 ,-0.00003139,-0.00003814,-0.00032421,0.00012947,0.00002513,-0.00004452
 ,-0.00004590,0.01356986,-0.02242005,0.00563419,-0.10802335,0.11150829,
 -0.02083793,-0.00091856,0.00037037,-0.00085013,-0.00002029,0.00000239,
 0.00002759,-0.00221080,-0.00125194,0.00011916,-0.00113419,0.00181490,-
 0.00134389,0.00000266,-0.00000295,-0.00001349,-0.00002033,0.00004504,0
 .00001378,-0.00001121,0.00000207,-0.00000501,-0.00000221,-0.00000148,0
 .00000051,0.00003281,-0.00004387,0.00007600,-0.00785313,0.01255784,-0.
 00411099,0.11691278,0.00001106,0.00002434,-0.00002821,-0.00005077,0.00
 001327,-0.00002093,-0.00004087,-0.00000380,-0.00010600,-0.00009360,0.0
 0004186,0.00000569,-0.00007235,-0.00035243,0.00017713,0.00004178,-0.00
 005468,-0.00004305,0.01186681,-0.02208230,0.00354679,0.11401711,-0.245
 52232,0.04319573,-0.00063181,0.00047352,-0.00086284,0.00001124,0.00000
 767,0.00005445,-0.00318501,-0.00121781,0.00111583,-0.00139591,0.002935
 72,-0.00151636,-0.00001689,-0.00000806,-0.00004252,-0.00003604,0.00006
 286,0.00001893,-0.00001143,0.00000266,-0.00000825,-0.00000494,-0.00000
 135,0.00000115,0.00001513,-0.00003662,0.00005769,0.00299000,-0.0059511
 3,0.00133752,-0.12111691,0.26590460,0.00000234,0.00000362,-0.00000179,
 0.00000697,-0.00000209,-0.00000376,0.00002623,0.00002108,0.00000011,0.
 00001430,-0.00001516,-0.00002011,-0.00001576,-0.00000156,0.00001980,-0
 .00004872,0.00005621,0.00001003,-0.00585339,0.00651481,-0.00271611,-0.
 02162578,0.04293528,-0.05565032,-0.00014385,0.00006685,0.00009043,0.00
 001023,-0.00001501,-0.00000435,-0.00022562,-0.00012962,-0.00024653,0.0
 0204946,-0.00081378,0.00027058,-0.00000157,0.00001420,0.00000426,0.000
 01914,-0.00002164,-0.00001376,0.00000168,-0.00000454,0.00000181,-0.000
 00205,-0.00000188,0.00000509,-0.00005111,0.00001081,0.00000771,0.01265
 488,-0.02467664,0.00671691,0.02435398,-0.04629263,0.05532695,0.0000044
 6,-0.00000402,-0.00000331,-0.00001887,0.00001198,-0.00000437,-0.000025
 85,-0.00001109,-0.00002726,-0.00002707,0.00002412,0.00000006,0.0001066
 2,0.00002814,0.00005671,0.00005136,-0.00005139,-0.00001023,-0.01409414
 ,-0.00267903,-0.01881735,-0.16292132,-0.02875559,-0.13055114,0.0007343
 6,-0.00071506,-0.00037540,0.00000817,0.00002177,0.00004435,-0.00189916
 ,-0.00168444,0.00225262,0.00296116,0.00027424,0.00200850,-0.00001402,-
 0.00002122,-0.00005033,-0.00003711,0.00003618,0.00001518,-0.00000687,0
 .00000139,-0.00000389,-0.00000308,0.00000045,-0.00000200,0.00000728,0.
 00000464,-0.00002885,0.01351325,0.00294765,0.01341618,-0.01034492,-0.0
 0291766,-0.01171766,0.17249335,0.00001079,-0.00000806,0.00000601,-0.00
 001795,0.00001466,-0.00000500,-0.00000707,-0.00000190,-0.00002405,-0.0
 0002093,0.00001225,-0.00001995,0.00023946,0.00006984,0.00003040,0.0000
 1096,-0.00002323,-0.00001735,-0.01813310,-0.00630828,-0.02106372,-0.02
 950628,-0.05043421,-0.03397975,0.00082746,-0.00131293,-0.00000414,0.00
 001283,0.00002295,0.00002873,-0.00253011,-0.00268927,0.00218654,0.0036
 2383,0.00089233,0.00056873,-0.00001329,-0.00001575,-0.00003793,-0.0000
 2008,0.00002719,0.00000900,-0.00000482,0.00000028,-0.00000293,-0.00000
 335,-0.00000096,0.00000169,-0.00003861,-0.00001062,-0.00001054,-0.0062
 7590,-0.00244525,-0.00619537,0.01906498,0.00608707,0.02246375,0.033588
 41,0.05590653,0.00000113,0.00000213,0.00000596,0.00000325,-0.00000316,
 0.00000490,0.00000612,-0.00001791,-0.00002065,-0.00000675,0.00000659,0
 .00000698,-0.00004115,-0.00003000,-0.00002323,0.00000386,-0.00000002,0
 .00000219,0.00828073,0.00014121,0.00832401,-0.13156709,-0.03417986,-0.
 20146580,-0.00017441,0.00052274,0.00023010,0.00001726,0.00002275,-0.00
 000172,0.00017376,0.00096953,-0.00045280,-0.00037361,0.00060391,0.0000
 8138,-0.00000768,-0.00001621,0.00000296,-0.00000246,-0.00000039,0.0000
 0242,0.00000083,0.00000197,-0.00000074,0.00000169,0.00000244,-0.000000
 34,-0.00002290,0.00000200,-0.00000312,-0.01726906,-0.00315683,-0.01765
 546,-0.00287648,-0.00098291,-0.00412512,0.14370107,0.03564830,0.214819
 96,-0.00084537,-0.00104710,-0.00007133,-0.00011327,0.00001129,-0.00037
 179,0.00029646,-0.00108264,-0.00051509,-0.00307336,0.00231496,-0.00107
 647,0.00247143,-0.00172486,-0.03022593,0.00024120,-0.00049376,0.000017
 46,-0.00048427,0.00093486,0.00435660,-0.00008050,-0.00005087,-0.000060
 80,-0.05577069,0.00483442,0.04320360,-0.00035257,0.00068370,0.00005614
 ,-0.01105472,-0.00366346,0.02798426,0.00051059,0.00124830,-0.00240571,
 0.00026935,-0.00008025,0.00012521,-0.00000315,0.00005467,0.00006801,-0
 .00036983,-0.00000307,-0.00008668,0.00001611,0.00003662,0.00001513,0.0
 0001598,0.00064462,0.00015480,0.00020292,0.00007363,-0.00013398,0.0000
 4000,-0.00000368,-0.00001867,0.00001028,-0.00006039,-0.00009391,0.0722
 3774,-0.00006426,0.00029460,0.00004515,0.00004911,-0.00006404,0.000072
 29,0.00050374,0.00056699,0.00071771,0.00106297,-0.00028593,0.00022104,
 -0.00135313,0.00127965,0.00627984,-0.00016728,-0.00006916,-0.00009047,
 -0.00261583,0.00142179,0.00545783,0.00021154,0.00027789,-0.00067379,0.
 00702319,-0.05086784,-0.01819326,0.00017183,-0.00020580,-0.00005346,-0
 .01071890,-0.00268763,0.02847862,0.00166502,-0.00036165,-0.00324013,-0
 .00030370,-0.00003252,-0.00020719,-0.00003667,0.00000952,-0.00001190,0
 .00008150,-0.00002459,0.00000976,0.00000559,0.00002308,-0.00005061,0.0
 0038687,-0.00029602,0.00006113,0.00037512,0.00027581,-0.00016488,0.000
 07366,0.00002086,-0.00003617,0.00001767,-0.00005799,-0.00011746,0.0014
 7328,0.05386009,0.00020854,-0.00080843,-0.00021693,0.00012078,0.000332
 47,0.00040947,0.00180063,-0.00153562,0.00151189,-0.00166545,0.00172474
 ,-0.00046209,-0.00176999,-0.00234960,-0.01522448,-0.00085693,-0.000345
 80,-0.00017291,0.00022709,-0.00185796,-0.00146164,0.00033042,0.0000594
 4,-0.00046591,0.04946353,-0.00794511,-0.31035910,-0.00012233,0.0002319
 4,-0.00001106,0.00740256,0.00412599,-0.00762604,-0.00225187,-0.0025327
 9,-0.00037258,0.00007015,-0.00002720,0.00008680,0.00007901,-0.00002071
 ,0.00000046,-0.00016121,0.00004195,-0.00007275,0.00003665,0.00008749,-
 0.00002150,0.00007164,0.00079054,0.00008072,0.00009003,0.00022092,0.00
 012935,-0.00002253,0.00002127,0.00001424,-0.00000497,-0.00000014,0.000
 01670,-0.05350412,0.01040392,0.33665824,-0.00019629,-0.00007335,0.0000
 0557,-0.00004840,-0.00004143,-0.00012313,-0.00416234,0.00050073,-0.004
 25915,0.00045656,0.00047354,0.00127321,-0.01100373,0.02450466,0.007431
 37,-0.00016815,0.00025173,0.00087021,-0.00158511,-0.00169362,0.0055637
 1,-0.00090327,0.00001357,-0.00131054,-0.09310931,0.09953054,0.02331834
 ,-0.00009446,0.00074848,-0.00123683,0.00563066,-0.03252817,-0.00933660
 ,0.00147248,0.00041684,-0.00131999,0.00041154,-0.00024581,0.00077035,-
 0.00063010,0.00040074,0.00000846,-0.00005956,0.00006369,-0.00002958,0.
 00001197,-0.00002603,-0.00006907,0.00019398,-0.00012180,-0.00025383,-0
 .00000049,0.00004839,0.00006218,0.00007955,0.00004896,0.00001938,-0.00
 029522,-0.00036521,0.00010305,-0.00243025,0.00520159,0.00053425,0.1052
 1197,0.00015167,-0.00001432,0.00013507,0.00003775,0.00012261,0.0001323
 2,0.00097190,0.00033393,0.00104985,0.00001221,-0.00034263,-0.00058161,
 0.00348110,-0.00314042,-0.00213254,-0.00029613,-0.00019626,-0.00025233
 ,-0.00061554,-0.00032177,0.00645018,-0.00064262,-0.00013933,-0.0012003
 1,0.09666561,-0.25349216,-0.04768823,0.00056157,0.00006342,-0.00165385
 ,-0.00261239,-0.02817828,-0.00867336,0.00089799,0.00024758,-0.00103957
 ,-0.00108144,0.00002539,-0.00049131,0.00006222,0.00000184,0.00004698,0
 .00005867,-0.00003933,0.00000482,-0.00000289,0.00002297,0.00001596,-0.
 00011076,0.00009493,0.00005766,0.00000395,0.00003494,0.00005581,0.0000
 2596,-0.00000580,0.00003323,-0.00023468,-0.00033891,0.00010805,0.00007
 806,0.00090028,-0.00123920,-0.09644492,0.28466513,0.00008681,0.0000582
 3,0.00022165,-0.00001493,0.00001160,-0.00006349,-0.00246788,-0.0002979
 7,-0.00183287,0.00068624,0.00019188,0.00092555,-0.00856163,0.01692875,
 0.00449133,-0.00024676,0.00022314,0.00072912,0.00159880,-0.00053610,-0
 .00329381,0.00045821,-0.00016909,0.00047477,0.02232598,-0.05242037,-0.
 06543390,-0.00085787,-0.00078028,-0.00206520,-0.00074757,0.01049820,0.
 00397199,-0.00212235,-0.00141843,0.00095547,0.00001731,0.00022329,0.00
 025691,-0.00025147,0.00014986,-0.00004985,0.00004453,-0.00000318,0.000
 02434,0.00002763,-0.00001864,-0.00000706,-0.00002582,0.00032513,0.0000
 0392,-0.00000019,0.00001244,0.00003079,-0.00005915,-0.00004921,0.00000
 030,0.00009878,0.00011396,0.00000100,0.01258936,-0.02912496,-0.0030681
 7,-0.02179728,0.05712424,0.06551097,-0.00026959,0.00125068,0.00205501,
 0.00009713,0.00039312,-0.00081890,-0.00054920,0.00103566,-0.00007542,-
 0.01827322,-0.00227183,0.00475822,0.00017164,-0.00064265,-0.00198886,0
 .00058295,-0.00028457,0.00032131,0.00007141,0.00050684,0.00042567,-0.0
 0005504,0.00002037,0.00000494,-0.00086956,0.00063508,-0.00038747,-0.25
 193798,-0.07192155,0.03972488,0.00041149,-0.00045739,0.00004276,0.0001
 8889,-0.00019875,-0.00035667,-0.01002293,-0.00887021,-0.01340788,-0.00
 023464,0.00027460,0.00017896,0.00013485,-0.00060997,0.00014864,-0.0001
 1956,0.00019124,0.00004539,-0.00010785,0.00004000,0.00006346,0.0000290
 5,0.00000973,-0.00001511,0.00000376,-0.00000670,-0.00000011,-0.0000055
 5,-0.00000929,-0.00000965,0.00032796,-0.00024864,0.00003405,0.00049590
 ,-0.00089933,-0.00007261,0.27976898,0.00054494,-0.00168188,-0.00221006
 ,0.00006938,-0.00118469,0.00079851,-0.00030361,-0.00016902,0.00075224,
 0.02611228,0.00729035,-0.00376533,0.00009458,0.00022645,0.00019962,0.0
 0025182,0.00024450,0.00031768,0.00001245,-0.00006352,0.00003217,0.0000
 0459,-0.00001274,-0.00001431,-0.00022605,0.00086947,-0.00081478,-0.069
 74750,-0.07712512,0.01631183,0.00015189,-0.00014311,-0.00002233,-0.000
 05583,0.00002651,0.00003340,-0.01365961,-0.00390204,-0.01023098,0.0002
 0689,-0.00016888,-0.00017275,0.00043539,0.00039908,-0.00021701,0.00012
 089,-0.00024639,-0.00001760,-0.00002794,0.00005345,-0.00003872,-0.0000
 0967,0.00000699,-0.00000042,0.00000271,-0.00000325,-0.00000298,-0.0000
 0709,-0.00000073,0.00000678,0.00005071,-0.00005080,0.00001899,-0.00015
 890,-0.00048810,-0.00054791,0.08195042,0.08415066,0.00026342,-0.000595
 45,-0.00143098,-0.00001676,-0.00049092,0.00030902,-0.00021204,0.000208
 74,0.00017745,0.00749273,0.00312741,0.00165423,0.00040270,-0.00084946,
 0.00040525,0.00015726,0.00013275,0.00019501,-0.00005567,-0.00025065,-0
 .00023553,0.00001890,0.00000645,0.00000471,0.00030662,-0.00049188,-0.0
 0021600,0.04194565,0.01573552,-0.05807254,-0.00012896,0.00019181,-0.00
 004523,-0.00006091,0.00014361,0.00016683,-0.03816836,-0.01825909,-0.00
 784145,0.00014473,-0.00015311,-0.00011392,0.00040478,-0.00015411,-0.00
 013176,0.00001828,-0.00012857,0.00000946,0.00002551,0.00000856,-0.0000
 2417,0.00000226,-0.00000422,0.00000367,0.00000281,0.00001148,0.0000039
 4,0.00000626,0.00000597,-0.00000320,-0.00004080,0.00026690,0.00002963,
 -0.00008965,0.00004763,-0.00149055,-0.03232948,-0.00812181,0.06714879,
 -0.00027739,0.00105005,0.00107232,-0.00069997,-0.00064306,0.00044471,-
 0.00098096,-0.00007195,0.00030779,-0.00135690,0.01895506,-0.01201375,0
 .00013369,-0.00069397,-0.00085340,0.00033921,-0.00004430,0.00012329,0.
 00006439,0.00002667,-0.00003577,-0.00002192,0.00003558,0.00001746,0.00
 022708,-0.00030231,0.00003026,-0.05246098,-0.00060861,-0.00093811,0.00
 009170,0.00001332,0.00020042,0.00005002,0.00000297,-0.00003422,0.00065
 040,0.00880718,-0.01684857,-0.00013117,0.00024573,0.00005419,0.0004057
 2,0.00025896,-0.00051896,-0.00010573,0.00010705,0.00002752,0.00001756,
 0.00003446,0.00001263,0.00001326,0.00000039,-0.00000655,0.00000563,0.0
 0000621,-0.00000139,0.00000534,0.00000013,-0.00000592,0.00002188,0.000
 06420,0.00000142,-0.00005678,-0.00011715,-0.00012254,-0.00013779,-0.02
 450945,0.02068791,0.05400940,-0.00100113,-0.00160588,-0.00135732,0.000
 90665,0.00026663,-0.00089834,0.00070251,0.00022637,-0.00035511,0.00383
 614,-0.01805618,0.01269241,0.00145730,0.00099220,0.00045527,-0.0002293
 6,0.00023707,0.00031628,0.00008929,0.00007719,-0.00013224,0.00004067,-
 0.00000928,0.00005686,0.00066676,-0.00139283,0.00008076,0.00051828,-0.
 18704926,0.12078270,-0.00057052,0.00053287,0.00003424,-0.00006435,0.00
 005774,-0.00003180,-0.00162790,0.01496305,-0.01460505,0.00027469,-0.00
 047530,-0.00016108,-0.00021385,-0.00037924,0.00040580,0.00017048,-0.00
 007560,-0.00010829,0.00001679,-0.00008980,-0.00001638,0.00000819,-0.00
 000460,0.00000272,0.00000143,0.00000979,0.00000585,0.00000934,0.000012
 04,-0.00001197,-0.00014795,0.00010080,-0.00003293,-0.00115639,-0.00010
 141,-0.00047443,-0.00092030,-0.00808866,0.00873243,-0.00294105,0.19779
 482,-0.00002971,-0.00088016,-0.00045466,0.00048660,0.00008290,-0.00060
 363,-0.00004907,0.00098468,0.00012716,0.00074285,-0.00672603,0.0100409
 0,-0.00017520,-0.00087170,-0.00066130,0.00046745,-0.00000948,0.0003850
 8,0.00010314,0.00012303,0.00012218,0.00000065,-0.00001107,0.00000227,0
 .00001629,-0.00004639,-0.00006831,0.00044467,0.11490795,-0.14895302,-0
 .00040047,-0.00012469,0.00004272,-0.00001946,-0.00004416,-0.00004091,-
 0.00999853,0.01142661,-0.03823543,0.00005982,-0.00018277,-0.00000889,0
 .00028248,-0.00038481,0.00012781,0.00006779,-0.00001108,-0.00004135,-0
 .00007804,0.00003218,0.00001222,-0.00001300,0.00000142,0.00000550,0.00
 000095,-0.00000359,-0.00000172,-0.00000564,0.00000257,0.00000558,0.000
 05897,-0.00023785,-0.00001973,-0.00011009,-0.00059903,-0.00026795,0.00
 194373,0.00755835,-0.00176814,0.00719898,-0.12605195,0.17944252,-0.000
 27511,0.00012528,-0.00011431,0.00002637,-0.00021145,-0.00017064,-0.000
 47446,0.00070047,-0.00036934,-0.00005331,-0.00001833,-0.00025657,0.000
 84395,0.00000680,0.00097947,0.00002179,0.00023493,0.00027252,-0.001546
 69,0.00862135,-0.00460155,-0.00139073,0.00023970,-0.00242864,-0.008069
 86,0.00256139,0.01858027,-0.00012845,-0.00045042,-0.00002549,-0.092327
 59,-0.03608989,0.15131794,0.00593240,-0.00422579,-0.00058380,0.0000496
 7,0.00025353,0.00010425,0.00006754,-0.00008433,-0.00004125,0.00001083,
 -0.00001031,0.00000883,0.00001228,-0.00000332,0.00000224,-0.00005265,-
 0.00008883,0.00006771,-0.00076280,-0.00151839,0.00034289,0.00003100,0.
 00057600,0.00054770,-0.00020278,-0.00037035,0.00015457,-0.00207855,-0.
 00287119,-0.00012226,0.00071217,0.00001251,-0.00060085,0.00018601,-0.0
 0028405,-0.00004356,0.00008262,0.00015756,-0.00007761,0.09937048,-0.00
 006633,-0.00013836,-0.00008632,-0.00002476,-0.00005741,-0.00007039,-0.
 00004367,-0.00005136,-0.00016764,-0.00039681,0.00060730,0.00013482,0.0
 0093495,0.00015636,-0.00038870,0.00016293,-0.00004775,0.00007800,0.019
 27926,0.00593509,-0.02388894,0.00157624,-0.00171065,0.00053777,-0.0058
 0226,0.00099850,0.02445386,-0.00118769,-0.00035161,-0.00004676,-0.0392
 8516,-0.04916271,0.00967344,-0.00375368,-0.00412612,-0.00647100,0.0005
 5306,0.00024118,0.00034002,-0.00001250,-0.00001955,-0.00001833,-0.0000
 7153,0.00003679,-0.00001960,0.00001527,-0.00000937,-0.00001203,-0.0000
 3871,-0.00004828,-0.00006540,-0.00171062,-0.00080687,-0.00000698,-0.00
 036294,-0.00034673,-0.00010946,0.00011099,0.00059860,0.00047206,-0.004
 03790,-0.00409045,0.00063543,0.00073546,0.00013453,0.00003861,0.000545
 17,-0.00010554,-0.00033371,0.00018223,-0.00000886,-0.00006379,0.032754
 75,0.05248669,0.00000271,0.00001813,-0.00009220,-0.00003028,-0.0000438
 2,-0.00006053,-0.00017019,0.00026945,-0.00014643,0.00000657,0.00010893
 ,-0.00011248,0.00055766,-0.00026947,0.00107849,0.00005733,0.00006157,0
 .00012786,0.00897817,0.01042573,-0.01693035,0.00025122,0.00059070,0.00
 012365,-0.00386412,-0.00064253,0.00029160,-0.00019883,-0.00029821,0.00
 013085,0.15790173,-0.00106696,-0.38124721,-0.00023042,-0.00539923,0.00
 078204,0.00011172,0.00012880,-0.00003610,-0.00000577,-0.00001289,-0.00
 001431,-0.00002041,0.00000279,-0.00000507,-0.00000114,-0.00000591,0.00
 000092,0.00001284,-0.00002327,-0.00001734,-0.00063912,-0.00018016,0.00
 133176,-0.00007108,0.00040540,0.00031151,-0.00000619,0.00029045,0.0002
 4989,0.00001597,0.00015507,0.00065083,0.00010496,0.00014352,-0.0000240
 3,0.00013316,-0.00011537,0.00006287,0.00007829,0.00008018,-0.00009006,
 -0.16294947,-0.00457307,0.39361133,-0.00102677,0.00052359,-0.00012010,
 0.00034724,0.00001839,0.00032671,-0.00012172,-0.00003190,-0.00007331,-
 0.00151853,-0.00044433,-0.00203757,0.00063915,-0.00030676,-0.00040683,
 -0.00000958,0.00004853,0.00003557,0.00000256,-0.00007992,-0.00008339,0
 .00000658,-0.00000505,-0.00001516,0.00010394,0.00003176,0.00008578,0.0
 0554574,-0.01730194,-0.01147795,-0.00001193,0.00003477,0.00001687,-0.0
 0003511,0.00001807,0.00007959,-0.16810692,0.23253250,0.06438231,-0.000
 04043,0.00008349,0.00006027,0.00079009,-0.00001745,0.00057241,-0.00001
 135,0.00002758,-0.00001560,0.00001491,-0.00006980,0.00001552,-0.000007
 40,-0.00000145,0.00000732,-0.00000381,0.00000028,-0.00000063,0.0000003
 5,-0.00000213,0.00000376,-0.00000535,0.00001271,0.00001089,0.00006668,
 0.00003667,0.00001526,0.00011289,-0.00101926,-0.00073364,0.00011171,0.
 00001672,-0.00091757,0.00001587,-0.00005574,-0.00002531,0.16314120,-0.
 00031817,0.00032294,0.00034385,-0.00007751,0.00017240,-0.00014128,-0.0
 0007381,-0.00017293,-0.00012888,-0.00197040,-0.00011391,-0.00244483,0.
 00078181,0.00021160,-0.00007201,-0.00005910,-0.00006150,-0.00010087,-0
 .00001882,-0.00019502,-0.00021278,0.00001726,0.00000320,-0.00000489,0.
 00019866,-0.00016630,0.00011202,0.01070386,-0.01222262,0.00118922,-0.0
 0000723,0.00017091,0.00007718,-0.00005107,0.00006977,0.00015837,0.2046
 1001,-0.31855167,-0.11624315,-0.00003673,0.00003144,0.00002525,-0.0001
 2664,-0.00028957,-0.00009057,-0.00001083,0.00004635,-0.00000400,0.0000
 1037,-0.00006995,0.00005118,-0.00001109,-0.00000147,0.00000383,-0.0000
 0135,0.00000207,-0.00000255,0.00000430,0.00000434,0.00000627,-0.000043
 18,0.00006306,0.00000041,-0.00008327,0.00015117,-0.00005875,0.00048826
 ,0.00016701,0.00121371,0.00014164,0.00206632,0.00112886,-0.00001764,-0
 .00011340,-0.00004979,-0.21404931,0.32847579,-0.00110990,0.00074820,-0
 .00009939,0.00011400,-0.00009733,0.00020745,-0.00039700,-0.00010635,-0
 .00040956,-0.00412085,-0.00165290,-0.00615679,0.00129263,-0.00131902,0
 .00005229,0.00006122,0.00000054,-0.00000815,-0.00005305,-0.00019393,-0
 .00016480,0.00001249,0.00003201,0.00001902,0.00024311,-0.00034669,0.00
 011615,0.02220577,-0.03448398,-0.01525951,0.00001509,0.00024987,0.0000
 7497,0.00001660,0.00009177,0.00007293,0.03027188,-0.07922795,-0.056680
 58,-0.00006637,0.00012781,0.00006480,0.00058564,0.00000996,0.00017896,
 -0.00004380,0.00000293,0.00002568,0.00012101,-0.00007617,-0.00004264,0
 .00000566,-0.00000640,-0.00000520,0.00000085,0.00000744,-0.00000009,0.
 00000887,0.00000477,-0.00000186,-0.00004026,0.00003288,-0.00003345,-0.
 00012929,0.00014601,-0.00000124,-0.00041803,0.00026279,0.00120260,0.00
 112199,0.00059141,0.00090111,0.00000695,-0.00004188,0.00002251,-0.0497
 0521,0.11524422,0.07592478\\-0.00000398,-0.00000064,0.00000007,-0.0000
 0773,0.00000331,-0.00000291,-0.00001812,0.00001871,0.00000406,0.000004
 71,0.00001036,0.00000733,0.00000864,-0.00001341,-0.00000734,0.00003429
 ,-0.00002854,-0.00000578,0.00000138,0.00000401,-0.00000922,0.00000177,
 0.00000078,0.00000931,-0.00000284,0.00000151,-0.00000313,0.00000287,-0
 .00000462,-0.00000840,-0.00000130,0.00000283,0.00000826,-0.00000296,-0
 .00000313,0.00000442,-0.00000237,-0.00000081,0.00000786,-0.00001460,0.
 00001658,0.00000593,0.00000024,-0.00000079,-0.00000117,0.00000142,0.00
 000006,-0.00000020,0.00000142,-0.00000066,-0.00000068,-0.00000105,-0.0
 0000062,-0.00000234,-0.00000073,-0.00000085,-0.00000383,-0.00000093,-0
 .00000196,-0.00000187,0.00000083,-0.00000056,0.00000011,0.00000002,-0.
 00000041,0.00000236,-0.00000076,-0.00000086,0.00000089,-0.00000346,0.0
 0000102,0.00000136,-0.00000065,-0.00000161,-0.00000189,0.00000392,0.00
 000031,-0.00000320\\\@


0EVERYBODY IS IGNORANT, ONLY ON DIFFERENT SUBJECTS.
0          WILL ROGERS
 Job cpu time:  0 days  2 hours 12 minutes 38.8 seconds.
 File lengths (MBytes):  RWF=    198 Int=      0 D2E=      0 Chk=      5 Scr=      1
 Normal termination of Gaussian 09 at Fri Feb 16 22:49:04 2018.
