 Entering Gaussian System, Link 0=g09
 Initial command:
 /home/fb_chem/chemsoft/lx24-amd64/Gaussian_09_C.01_NBO_3.1_64_istanbul-64/g09/l1.exe /local/2400096.1.parallel_long/Gau-24177.inp -scrdir=/local/2400096.1.parallel_long/
 Entering Link 1 = /home/fb_chem/chemsoft/lx24-amd64/Gaussian_09_C.01_NBO_3.1_64_istanbul-64/g09/l1.exe PID=     24178.
  
 Copyright (c) 1988,1990,1992,1993,1995,1998,2003,2009,2011,
            Gaussian, Inc.  All Rights Reserved.
  
 This is part of the Gaussian(R) 09 program.  It is based on
 the Gaussian(R) 03 system (copyright 2003, Gaussian, Inc.),
 the Gaussian(R) 98 system (copyright 1998, Gaussian, Inc.),
 the Gaussian(R) 94 system (copyright 1995, Gaussian, Inc.),
 the Gaussian 92(TM) system (copyright 1992, Gaussian, Inc.),
 the Gaussian 90(TM) system (copyright 1990, Gaussian, Inc.),
 the Gaussian 88(TM) system (copyright 1988, Gaussian, Inc.),
 the Gaussian 86(TM) system (copyright 1986, Carnegie Mellon
 University), and the Gaussian 82(TM) system (copyright 1983,
 Carnegie Mellon University). Gaussian is a federally registered
 trademark of Gaussian, Inc.
  
 This software contains proprietary and confidential information,
 including trade secrets, belonging to Gaussian, Inc.
  
 This software is provided under written license and may be
 used, copied, transmitted, or stored only in accord with that
 written license.
  
 The following legend is applicable only to US Government
 contracts under FAR:
  
                    RESTRICTED RIGHTS LEGEND
  
 Use, reproduction and disclosure by the US Government is
 subject to restrictions as set forth in subparagraphs (a)
 and (c) of the Commercial Computer Software - Restricted
 Rights clause in FAR 52.227-19.
  
 Gaussian, Inc.
 340 Quinnipiac St., Bldg. 40, Wallingford CT 06492
  
  
 ---------------------------------------------------------------
 Warning -- This program may not be used in any manner that
 competes with the business of Gaussian, Inc. or will provide
 assistance to any competitor of Gaussian, Inc.  The licensee
 of this program is prohibited from giving any competitor of
 Gaussian, Inc. access to this program.  By using this program,
 the user acknowledges that Gaussian, Inc. is engaged in the
 business of creating and licensing software in the field of
 computational chemistry and represents and warrants to the
 licensee that it is not a competitor of Gaussian, Inc. and that
 it will not use this program in any manner prohibited above.
 ---------------------------------------------------------------
  

 Cite this work as:
 Gaussian 09, Revision C.01,
 M. J. Frisch, G. W. Trucks, H. B. Schlegel, G. E. Scuseria, 
 M. A. Robb, J. R. Cheeseman, G. Scalmani, V. Barone, B. Mennucci, 
 G. A. Petersson, H. Nakatsuji, M. Caricato, X. Li, H. P. Hratchian, 
 A. F. Izmaylov, J. Bloino, G. Zheng, J. L. Sonnenberg, M. Hada, 
 M. Ehara, K. Toyota, R. Fukuda, J. Hasegawa, M. Ishida, T. Nakajima, 
 Y. Honda, O. Kitao, H. Nakai, T. Vreven, J. A. Montgomery, Jr., 
 J. E. Peralta, F. Ogliaro, M. Bearpark, J. J. Heyd, E. Brothers, 
 K. N. Kudin, V. N. Staroverov, T. Keith, R. Kobayashi, J. Normand, 
 K. Raghavachari, A. Rendell, J. C. Burant, S. S. Iyengar, J. Tomasi, 
 M. Cossi, N. Rega, J. M. Millam, M. Klene, J. E. Knox, J. B. Cross, 
 V. Bakken, C. Adamo, J. Jaramillo, R. Gomperts, R. E. Stratmann, 
 O. Yazyev, A. J. Austin, R. Cammi, C. Pomelli, J. W. Ochterski, 
 R. L. Martin, K. Morokuma, V. G. Zakrzewski, G. A. Voth, 
 P. Salvador, J. J. Dannenberg, S. Dapprich, A. D. Daniels, 
 O. Farkas, J. B. Foresman, J. V. Ortiz, J. Cioslowski, 
 and D. J. Fox, Gaussian, Inc., Wallingford CT, 2010.
 
 ******************************************
 Gaussian 09:  AM64L-G09RevC.01 23-Sep-2011
                17-Feb-2018 
 ******************************************
 %nprocs=2
 Will use up to    2 processors via shared memory.
 %chk=frag51-conf2.chk
 ----------------------------------------------------------------------
 #HF/6-31G* Geom=AllCheck Guess=Read Pop=(MK,ReadRadii) Integral=(Grid=
 UltraFine) iop(6/33=2)
 ----------------------------------------------------------------------
 1/29=7,38=1/1;
 2/12=2,40=1/2;
 3/5=1,6=6,7=1,11=9,14=-4,16=1,25=1,30=1,75=-5,116=-2/1,2,3;
 4/5=1/1;
 5/5=2,38=6/2;
 6/7=2,8=2,9=2,10=2,15=8,20=101,28=1,33=2/1,2;
 99/5=1,9=1/99;
 Structure from the checkpoint file:  frag51-conf2.chk
 -----------------------------
 Optimization for frag51-conf2
 -----------------------------
 Charge =  0 Multiplicity = 1
 Redundant internal coordinates found in file.
 C,0,1.5824035208,-2.0662961415,-0.1325780271
 C,0,0.7418936402,-1.0455434868,0.3075397332
 C,0,2.2908269163,-0.5812560494,2.1118728957
 C,0,2.7804531613,-2.3568869386,0.5289053625
 C,0,3.1360052687,-1.6051739038,1.6644826088
 C,0,1.1080030994,-0.3098606111,1.4319496607
 C,0,5.6420702048,0.2320094168,3.0303012079
 C,0,6.6558762229,1.2670399771,2.5673044332
 C,0,4.4293965595,-1.8403611083,2.4318150699
 C,0,3.6643536973,-3.4836936157,0.0253226246
 N,0,5.449637359,-0.8250036303,2.1782819901
 O,0,5.048653908,0.3381910991,4.0974084545
 O,0,3.1512663971,-3.982036537,-1.2005041198
 Cl,0,0.0556008364,0.9801828377,2.0056520419
 H,0,1.3127025129,-2.6484701119,-1.0056997861
 H,0,-0.1844396391,-0.8262941741,-0.2128041867
 H,0,2.5678957587,-0.0031735032,2.987935089
 H,0,7.2089880392,0.9732982898,1.6695789806
 H,0,6.1339693298,2.2091901866,2.369163846
 H,0,7.3639252368,1.4506829113,3.3800707914
 H,0,4.2367305597,-1.797132151,3.5061771264
 H,0,4.854291872,-2.8241916311,2.2121776094
 H,0,4.697172594,-3.1189798555,-0.1076520702
 H,0,3.7087877169,-4.2848159172,0.7825546682
 H,0,5.8556371373,-0.7782738383,1.2541554231
 H,0,3.6788953222,-4.7548282662,-1.449170684
 Recover connectivity data from disk.
                          Input orientation:                          
 ---------------------------------------------------------------------
 Center     Atomic      Atomic             Coordinates (Angstroms)
 Number     Number       Type             X           Y           Z
 ---------------------------------------------------------------------
      1          6           0        1.582404   -2.066296   -0.132578
      2          6           0        0.741894   -1.045543    0.307540
      3          6           0        2.290827   -0.581256    2.111873
      4          6           0        2.780453   -2.356887    0.528905
      5          6           0        3.136005   -1.605174    1.664483
      6          6           0        1.108003   -0.309861    1.431950
      7          6           0        5.642070    0.232009    3.030301
      8          6           0        6.655876    1.267040    2.567304
      9          6           0        4.429397   -1.840361    2.431815
     10          6           0        3.664354   -3.483694    0.025323
     11          7           0        5.449637   -0.825004    2.178282
     12          8           0        5.048654    0.338191    4.097408
     13          8           0        3.151266   -3.982037   -1.200504
     14         17           0        0.055601    0.980183    2.005652
     15          1           0        1.312703   -2.648470   -1.005700
     16          1           0       -0.184440   -0.826294   -0.212804
     17          1           0        2.567896   -0.003174    2.987935
     18          1           0        7.208988    0.973298    1.669579
     19          1           0        6.133969    2.209190    2.369164
     20          1           0        7.363925    1.450683    3.380071
     21          1           0        4.236731   -1.797132    3.506177
     22          1           0        4.854292   -2.824192    2.212178
     23          1           0        4.697173   -3.118980   -0.107652
     24          1           0        3.708788   -4.284816    0.782555
     25          1           0        5.855637   -0.778274    1.254155
     26          1           0        3.678895   -4.754828   -1.449171
 ---------------------------------------------------------------------
                    Distance matrix (angstroms):
                    1          2          3          4          5
     1  C    0.000000
     2  C    1.393591   0.000000
     3  C    2.782942   2.422886   0.000000
     4  C    1.399045   2.433999   2.428659   0.000000
     5  C    2.419863   2.808247   1.401033   1.407489   0.000000
     6  C    2.399556   1.392682   1.391051   2.793366   2.417582
     7  C    5.636214   5.749548   3.568717   4.598719   3.394269
     8  C    6.643841   6.740161   4.762066   5.683909   4.631867
     9  C    3.838298   4.329198   2.502237   2.570385   1.522161
    10  C    2.523582   3.816411   3.829414   1.518081   2.548496
    11  N    4.672941   5.070618   3.168897   3.491655   2.495105
    12  O    5.974047   5.901357   3.520418   5.014219   3.654315
    13  O    2.696638   4.086840   4.824677   2.401972   3.722614
    14  Cl   4.022958   2.730961   2.728664   4.554299   4.036008
    15  H    1.083516   2.149371   3.866440   2.143438   3.397466
    16  H    2.160041   1.084860   3.404572   3.418104   3.893098
    17  H    3.868497   3.406661   1.085556   3.410568   2.154224
    18  H    6.644197   6.910440   5.176927   5.657136   4.820553
    19  H    6.727202   6.627071   4.756315   5.956650   4.902422
    20  H    7.624555   7.715108   5.610118   6.605675   5.491522
    21  H    4.512033   4.796879   2.684954   3.361282   2.154132
    22  H    4.096039   4.868578   3.407664   2.711565   2.176806
    23  H    3.287940   4.485059   4.142081   2.158658   2.805230
    24  H    3.206370   4.418256   4.182590   2.154775   2.878603
    25  H    4.673602   5.207484   3.671834   3.531963   2.872025
    26  H    3.654709   5.046861   5.659193   3.235754   4.462050
                    6          7          8          9         10
     6  C    0.000000
     7  C    4.837987   0.000000
     8  C    5.878311   1.521005   0.000000
     9  C    3.791282   2.474567   3.825116   0.000000
    10  C    4.311235   5.171819   6.162820   3.012812   0.000000
    11  N    4.435332   1.371220   2.446017   1.461548   3.858899
    12  O    4.801393   1.225616   2.405648   2.811365   5.753692
    13  O    4.958792   6.470085   7.350611   4.406147   1.419245
    14  Cl   1.760936   5.728727   6.630338   5.221798   6.072149
    15  H    3.384247   6.582544   7.526426   4.709918   2.700161
    16  H    2.154606   6.751737   7.674697   5.413855   4.683128
    17  H    2.155559   3.083448   4.301390   2.673895   4.700352
    18  H    6.238989   2.203703   1.094590   4.027879   5.927292
    19  H    5.699502   2.142034   1.095123   4.394128   6.633364
    20  H    6.784633   2.138291   1.093457   4.510168   7.020629
    21  H    4.037738   2.513733   4.015333   1.092357   3.910045
    22  H    4.578788   3.260412   4.484417   1.093937   2.575506
    23  H    4.810786   4.687079   5.498098   2.855777   1.103365
    24  H    4.794378   5.402930   6.534047   3.035572   1.103255
    25  H    4.773997   2.054502   2.558916   2.132856   3.692025
    26  H    5.887960   6.984860   7.826710   4.911153   1.946824
                   11         12         13         14         15
    11  N    0.000000
    12  O    2.279661   0.000000
    13  O    5.163871   7.094528   0.000000
    14  Cl   5.690706   5.451438   6.669798   0.000000
    15  H    5.529647   6.994226   2.279620   4.880130   0.000000
    16  H    6.120467   6.878897   4.696935   2.870980   2.488060
    17  H    3.104090   2.738909   5.806436   2.871149   4.951992
    18  H    2.566707   3.311308   7.018392   7.161281   7.418929
    19  H    3.116260   2.768642   7.744052   6.212018   7.630936
    20  H    3.207420   2.666963   8.260908   7.451309   8.523810
    21  H    2.044378   2.359741   5.301404   5.238979   5.443505
    22  H    2.086226   3.686806   3.985887   6.127263   4.788368
    23  H    3.324759   5.455099   2.080629   6.543193   3.533059
    24  H    4.116906   5.844287   2.082073   6.523952   3.408329
    25  H    1.010460   3.159399   4.858299   6.107155   5.407664
    26  H    5.633601   7.653733   0.968212   7.612780   3.198793
                   16         17         18         19         20
    16  H    0.000000
    17  H    4.300885   0.000000
    18  H    7.838665   4.922530   0.000000
    19  H    7.470142   4.241970   1.781155   0.000000
    20  H    8.664363   5.026865   1.782606   1.763536   0.000000
    21  H    5.858335   2.504371   4.459001   4.576345   4.510383
    22  H    5.938093   3.713159   4.501104   5.195878   5.092817
    23  H    5.394219   4.881058   5.120010   6.048834   6.337002
    24  H    5.301823   4.949525   6.378556   7.111325   7.280321
    25  H    6.215851   3.796843   2.252141   3.200883   3.429679
    26  H    5.646888   6.595487   7.416171   8.312919   8.683858
                   21         22         23         24         25
    21  H    0.000000
    22  H    1.763709   0.000000
    23  H    3.875442   2.343757   0.000000
    24  H    3.726314   2.342952   1.768770   0.000000
    25  H    2.954747   2.471089   2.945414   4.138503   0.000000
    26  H    5.797812   4.302835   2.347884   2.280878   5.278178
                   26
    26  H    0.000000
 Stoichiometry    C10H12ClNO2
 Framework group  C1[X(C10H12ClNO2)]
 Deg. of freedom    72
 Full point group                 C1      NOp   1
 Largest Abelian subgroup         C1      NOp   1
 Largest concise Abelian subgroup C1      NOp   1
                         Standard orientation:                         
 ---------------------------------------------------------------------
 Center     Atomic      Atomic             Coordinates (Angstroms)
 Number     Number       Type             X           Y           Z
 ---------------------------------------------------------------------
      1          6           0       -2.423089    0.631321    0.322438
      2          6           0       -2.529660   -0.756750    0.385665
      3          6           0       -0.253812   -0.943982   -0.424171
      4          6           0       -1.243456    1.250716   -0.104343
      5          6           0       -0.148097    0.451838   -0.482507
      6          6           0       -1.436800   -1.533634    0.009273
      7          6           0        3.166118   -0.044661    0.056504
      8          6           0        4.120061   -0.064396    1.241012
      9          6           0        1.178495    1.042003   -0.939488
     10          6           0       -1.169663    2.765589   -0.169786
     11          7           0        2.231563    0.958660    0.070572
     12          8           0        3.240043   -0.867342   -0.848962
     13          8           0       -2.346446    3.325977    0.391820
     14         17           0       -1.555159   -3.289259    0.077608
     15          1           0       -3.263803    1.250685    0.611568
     16          1           0       -3.447932   -1.228204    0.719475
     17          1           0        0.592807   -1.557402   -0.716376
     18          1           0        4.029675    0.807953    1.895967
     19          1           0        3.934796   -0.969418    1.829149
     20          1           0        5.144605   -0.124255    0.863685
     21          1           0        1.555967    0.484730   -1.799840
     22          1           0        1.070099    2.086820   -1.244947
     23          1           0       -0.276045    3.120976    0.371102
     24          1           0       -1.049657    3.084514   -1.219099
     25          1           0        2.129333    1.509312    0.911620
     26          1           0       -2.312431    4.283712    0.253901
 ---------------------------------------------------------------------
 Rotational constants (GHZ):      0.5775470      0.4495813      0.2712964
 Standard basis: 6-31G(d) (6D, 7F)
 There are   238 symmetry adapted basis functions of A   symmetry.
 Integral buffers will be    131072 words long.
 Raffenetti 1 integral format.
 Two-electron integral symmetry is turned on.
   238 basis functions,   464 primitive gaussians,   238 cartesian basis functions
    56 alpha electrons       56 beta electrons
       nuclear repulsion energy       955.1240022677 Hartrees.
 NAtoms=   26 NActive=   26 NUniq=   26 SFac= 1.00D+00 NAtFMM=   60 NAOKFM=F Big=F
 One-electron integrals computed using PRISM.
 NBasis=   238 RedAO= T  NBF=   238
 NBsUse=   238 1.00D-06 NBFU=   238
 Initial guess read from the checkpoint file:  frag51-conf2.chk
 B after Tr=     0.000000    0.000000    0.000000
         Rot=    1.000000    0.000000    0.000000    0.000000 Ang=   0.00 deg.
 Initial guess orbital symmetries:
       Occupied  (A) (A) (A) (A) (A) (A) (A) (A) (A) (A) (A) (A)
                 (A) (A) (A) (A) (A) (A) (A) (A) (A) (A) (A) (A)
                 (A) (A) (A) (A) (A) (A) (A) (A) (A) (A) (A) (A)
                 (A) (A) (A) (A) (A) (A) (A) (A) (A) (A) (A) (A)
                 (A) (A) (A) (A) (A) (A) (A) (A)
       Virtual   (A) (A) (A) (A) (A) (A) (A) (A) (A) (A) (A) (A)
                 (A) (A) (A) (A) (A) (A) (A) (A) (A) (A) (A) (A)
                 (A) (A) (A) (A) (A) (A) (A) (A) (A) (A) (A) (A)
                 (A) (A) (A) (A) (A) (A) (A) (A) (A) (A) (A) (A)
                 (A) (A) (A) (A) (A) (A) (A) (A) (A) (A) (A) (A)
                 (A) (A) (A) (A) (A) (A) (A) (A) (A) (A) (A) (A)
                 (A) (A) (A) (A) (A) (A) (A) (A) (A) (A) (A) (A)
                 (A) (A) (A) (A) (A) (A) (A) (A) (A) (A) (A) (A)
                 (A) (A) (A) (A) (A) (A) (A) (A) (A) (A) (A) (A)
                 (A) (A) (A) (A) (A) (A) (A) (A) (A) (A) (A) (A)
                 (A) (A) (A) (A) (A) (A) (A) (A) (A) (A) (A) (A)
                 (A) (A) (A) (A) (A) (A) (A) (A) (A) (A) (A) (A)
                 (A) (A) (A) (A) (A) (A) (A) (A) (A) (A) (A) (A)
                 (A) (A) (A) (A) (A) (A) (A) (A) (A) (A) (A) (A)
                 (A) (A) (A) (A) (A) (A) (A) (A) (A) (A) (A) (A)
                 (A) (A)
 Requested convergence on RMS density matrix=1.00D-08 within 128 cycles.
 Requested convergence on MAX density matrix=1.00D-06.
 Requested convergence on             energy=1.00D-06.
 No special actions if energy rises.
 SCF Done:  E(RHF) =  -1049.32710702     A.U. after   14 cycles
             Convg  =    0.3517D-08             -V/T =  2.0016

 **********************************************************************

            Population analysis using the SCF density.

 **********************************************************************

 Orbital symmetries:
 BldTbl:  Degeneracy threshold= 1.00D-02
       Occupied  (A) (A) (A) (A) (A) (A) (A) (A) (A) (A) (A) (A)
                 (A) (A) (A) (A) (A) (A) (A) (A) (A) (A) (A) (A)
                 (A) (A) (A) (A) (A) (A) (A) (A) (A) (A) (A) (A)
                 (A) (A) (A) (A) (A) (A) (A) (A) (A) (A) (A) (A)
                 (A) (A) (A) (A) (A) (A) (A) (A)
       Virtual   (A) (A) (A) (A) (A) (A) (A) (A) (A) (A) (A) (A)
                 (A) (A) (A) (A) (A) (A) (A) (A) (A) (A) (A) (A)
                 (A) (A) (A) (A) (A) (A) (A) (A) (A) (A) (A) (A)
                 (A) (A) (A) (A) (A) (A) (A) (A) (A) (A) (A) (A)
                 (A) (A) (A) (A) (A) (A) (A) (A) (A) (A) (A) (A)
                 (A) (A) (A) (A) (A) (A) (A) (A) (A) (A) (A) (A)
                 (A) (A) (A) (A) (A) (A) (A) (A) (A) (A) (A) (A)
                 (A) (A) (A) (A) (A) (A) (A) (A) (A) (A) (A) (A)
                 (A) (A) (A) (A) (A) (A) (A) (A) (A) (A) (A) (A)
                 (A) (A) (A) (A) (A) (A) (A) (A) (A) (A) (A) (A)
                 (A) (A) (A) (A) (A) (A) (A) (A) (A) (A) (A) (A)
                 (A) (A) (A) (A) (A) (A) (A) (A) (A) (A) (A) (A)
                 (A) (A) (A) (A) (A) (A) (A) (A) (A) (A) (A) (A)
                 (A) (A) (A) (A) (A) (A) (A) (A) (A) (A) (A) (A)
                 (A) (A) (A) (A) (A) (A) (A) (A) (A) (A) (A) (A)
                 (A) (A)
 The electronic state is 1-A.
 Alpha  occ. eigenvalues -- -104.81898 -20.58235 -20.52702 -15.59770 -11.36079
 Alpha  occ. eigenvalues --  -11.30454 -11.29999 -11.27971 -11.25492 -11.25379
 Alpha  occ. eigenvalues --  -11.24704 -11.24468 -11.24354 -11.24079 -10.55198
 Alpha  occ. eigenvalues --   -8.02135  -8.01806  -8.01804  -1.37886  -1.37724
 Alpha  occ. eigenvalues --   -1.23597  -1.18101  -1.11878  -1.04895  -1.02106
 Alpha  occ. eigenvalues --   -1.00772  -0.94078  -0.91211  -0.82904  -0.80033
 Alpha  occ. eigenvalues --   -0.78200  -0.72082  -0.69809  -0.67652  -0.65757
 Alpha  occ. eigenvalues --   -0.65084  -0.64002  -0.63140  -0.61338  -0.59067
 Alpha  occ. eigenvalues --   -0.58520  -0.58259  -0.56361  -0.55469  -0.53770
 Alpha  occ. eigenvalues --   -0.52827  -0.51776  -0.50053  -0.48858  -0.47628
 Alpha  occ. eigenvalues --   -0.44892  -0.44555  -0.42398  -0.39570  -0.33732
 Alpha  occ. eigenvalues --   -0.32388
 Alpha virt. eigenvalues --    0.12171   0.13377   0.19031   0.19679   0.20525
 Alpha virt. eigenvalues --    0.21191   0.24634   0.26974   0.27934   0.28864
 Alpha virt. eigenvalues --    0.29963   0.31642   0.32594   0.33300   0.33668
 Alpha virt. eigenvalues --    0.34803   0.36787   0.37708   0.39328   0.40852
 Alpha virt. eigenvalues --    0.43672   0.44513   0.46526   0.48373   0.48964
 Alpha virt. eigenvalues --    0.52712   0.53479   0.59758   0.60205   0.61603
 Alpha virt. eigenvalues --    0.63136   0.64500   0.71071   0.71418   0.72150
 Alpha virt. eigenvalues --    0.73010   0.73814   0.74796   0.75882   0.76362
 Alpha virt. eigenvalues --    0.80022   0.80423   0.80833   0.82244   0.83055
 Alpha virt. eigenvalues --    0.85098   0.86195   0.87668   0.89090   0.90667
 Alpha virt. eigenvalues --    0.90803   0.93977   0.94532   0.96250   0.96520
 Alpha virt. eigenvalues --    0.98440   0.99689   1.01910   1.02317   1.06180
 Alpha virt. eigenvalues --    1.07202   1.08033   1.09075   1.11074   1.11252
 Alpha virt. eigenvalues --    1.12288   1.13778   1.13995   1.15665   1.16327
 Alpha virt. eigenvalues --    1.16651   1.17648   1.18393   1.19259   1.19927
 Alpha virt. eigenvalues --    1.20344   1.20995   1.21939   1.23839   1.27241
 Alpha virt. eigenvalues --    1.28248   1.29856   1.31798   1.34862   1.36059
 Alpha virt. eigenvalues --    1.38692   1.39834   1.40581   1.45436   1.46004
 Alpha virt. eigenvalues --    1.48611   1.49464   1.53020   1.54383   1.59328
 Alpha virt. eigenvalues --    1.60190   1.62131   1.64312   1.65472   1.68787
 Alpha virt. eigenvalues --    1.70559   1.71952   1.73336   1.75665   1.77734
 Alpha virt. eigenvalues --    1.81727   1.83687   1.85362   1.92668   1.97360
 Alpha virt. eigenvalues --    1.99505   2.01777   2.03302   2.05532   2.07852
 Alpha virt. eigenvalues --    2.09652   2.10747   2.11219   2.12541   2.14011
 Alpha virt. eigenvalues --    2.17047   2.20493   2.21591   2.24313   2.26137
 Alpha virt. eigenvalues --    2.28220   2.30379   2.34562   2.36391   2.37640
 Alpha virt. eigenvalues --    2.39091   2.40179   2.42403   2.46369   2.48051
 Alpha virt. eigenvalues --    2.53189   2.54174   2.54734   2.55852   2.57244
 Alpha virt. eigenvalues --    2.59308   2.62863   2.65298   2.67757   2.68386
 Alpha virt. eigenvalues --    2.71087   2.72319   2.75349   2.76683   2.79804
 Alpha virt. eigenvalues --    2.83236   2.91396   2.95271   2.97599   2.98915
 Alpha virt. eigenvalues --    3.02920   3.04041   3.05187   3.13086   3.15237
 Alpha virt. eigenvalues --    3.18682   3.21305   3.24303   3.31326   3.36021
 Alpha virt. eigenvalues --    3.47693   3.49803   3.75714   4.27149   4.37300
 Alpha virt. eigenvalues --    4.47147   4.48687   4.52671   4.55714   4.60748
 Alpha virt. eigenvalues --    4.67496   4.74162   4.76825   4.81480   4.86623
 Alpha virt. eigenvalues --    4.92145   5.15687
          Condensed to atoms (all electrons):
              1          2          3          4          5          6
     1  C    4.917666   0.518813  -0.040994   0.562329  -0.029611  -0.037472
     2  C    0.518813   4.967389  -0.042024  -0.040557  -0.035397   0.521045
     3  C   -0.040994  -0.042024   5.017301  -0.036762   0.530259   0.512581
     4  C    0.562329  -0.040557  -0.036762   4.898957   0.565927  -0.032635
     5  C   -0.029611  -0.035397   0.530259   0.565927   4.919826  -0.037662
     6  C   -0.037472   0.521045   0.512581  -0.032635  -0.037662   5.043939
     7  C   -0.000002   0.000000   0.002050  -0.000107  -0.001845   0.000067
     8  C    0.000000   0.000000  -0.000022  -0.000007  -0.000358   0.000001
     9  C    0.002931   0.000157  -0.045237  -0.035521   0.320361   0.001821
    10  C   -0.043781   0.003436   0.003656   0.327518  -0.045477  -0.000142
    11  N   -0.000023  -0.000003  -0.000359  -0.001571  -0.073368   0.000014
    12  O    0.000000   0.000001  -0.001883  -0.000029  -0.002202   0.000088
    13  O   -0.007136   0.000097  -0.000041  -0.037262   0.000688   0.000000
    14  Cl   0.002386  -0.063567  -0.063460   0.000262   0.002471   0.215244
    15  H    0.378965  -0.031548   0.000132  -0.021105   0.002361   0.002222
    16  H   -0.025244   0.381895   0.002020   0.001809   0.000290  -0.029846
    17  H    0.000165   0.001897   0.369205   0.001620  -0.024936  -0.024470
    18  H    0.000000   0.000000  -0.000005   0.000001   0.000007   0.000000
    19  H    0.000000   0.000000   0.000015   0.000000   0.000048   0.000000
    20  H    0.000000   0.000000   0.000001   0.000000  -0.000004   0.000000
    21  H   -0.000058  -0.000002  -0.003304   0.001617  -0.036865   0.000060
    22  H    0.000148  -0.000023   0.003399  -0.003807  -0.055979  -0.000006
    23  H    0.001670   0.000026   0.000028  -0.056163  -0.001908   0.000000
    24  H   -0.000877  -0.000011   0.000039  -0.049598   0.000497   0.000008
    25  H   -0.000008  -0.000005   0.000351   0.000530   0.001218  -0.000002
    26  H    0.000331   0.000001   0.000002   0.005938  -0.000121   0.000000
              7          8          9         10         11         12
     1  C   -0.000002   0.000000   0.002931  -0.043781  -0.000023   0.000000
     2  C    0.000000   0.000000   0.000157   0.003436  -0.000003   0.000001
     3  C    0.002050  -0.000022  -0.045237   0.003656  -0.000359  -0.001883
     4  C   -0.000107  -0.000007  -0.035521   0.327518  -0.001571  -0.000029
     5  C   -0.001845  -0.000358   0.320361  -0.045477  -0.073368  -0.002202
     6  C    0.000067   0.000001   0.001821  -0.000142   0.000014   0.000088
     7  C    4.158318   0.360118  -0.025015   0.000003   0.277695   0.571874
     8  C    0.360118   5.247257   0.004490   0.000000  -0.102289  -0.067540
     9  C   -0.025015   0.004490   4.967247  -0.007985   0.192102   0.001179
    10  C    0.000003   0.000000  -0.007985   4.736566   0.000094   0.000000
    11  N    0.277695  -0.102289   0.192102   0.000094   7.352507  -0.094983
    12  O    0.571874  -0.067540   0.001179   0.000000  -0.094983   8.197912
    13  O    0.000000   0.000000   0.000166   0.221232   0.000001   0.000000
    14  Cl  -0.000003   0.000000  -0.000116   0.000006   0.000008  -0.000006
    15  H    0.000000   0.000000  -0.000102  -0.004514   0.000002   0.000000
    16  H    0.000000   0.000000   0.000006  -0.000099   0.000000   0.000000
    17  H    0.001095   0.000137  -0.000264  -0.000077  -0.002191   0.008298
    18  H   -0.038898   0.374292   0.000046   0.000000   0.005319   0.002490
    19  H   -0.027092   0.379424  -0.000114   0.000000   0.001007   0.000222
    20  H   -0.027864   0.381260  -0.000116   0.000000   0.002175   0.001097
    21  H   -0.001013   0.000440   0.407242   0.000046  -0.039664   0.008762
    22  H    0.002130  -0.000041   0.418826  -0.000119  -0.043658   0.000371
    23  H   -0.000002   0.000000  -0.000992   0.404986   0.000384   0.000000
    24  H    0.000001   0.000000  -0.001966   0.402307  -0.000031   0.000000
    25  H   -0.015308   0.000475  -0.022947   0.000115   0.317738   0.002157
    26  H    0.000000   0.000000   0.000008  -0.023288   0.000000   0.000000
             13         14         15         16         17         18
     1  C   -0.007136   0.002386   0.378965  -0.025244   0.000165   0.000000
     2  C    0.000097  -0.063567  -0.031548   0.381895   0.001897   0.000000
     3  C   -0.000041  -0.063460   0.000132   0.002020   0.369205  -0.000005
     4  C   -0.037262   0.000262  -0.021105   0.001809   0.001620   0.000001
     5  C    0.000688   0.002471   0.002361   0.000290  -0.024936   0.000007
     6  C    0.000000   0.215244   0.002222  -0.029846  -0.024470   0.000000
     7  C    0.000000  -0.000003   0.000000   0.000000   0.001095  -0.038898
     8  C    0.000000   0.000000   0.000000   0.000000   0.000137   0.374292
     9  C    0.000166  -0.000116  -0.000102   0.000006  -0.000264   0.000046
    10  C    0.221232   0.000006  -0.004514  -0.000099  -0.000077   0.000000
    11  N    0.000001   0.000008   0.000002   0.000000  -0.002191   0.005319
    12  O    0.000000  -0.000006   0.000000   0.000000   0.008298   0.002490
    13  O    8.381547   0.000000   0.004846   0.000000   0.000000   0.000000
    14  Cl   0.000000  16.915796  -0.000078   0.000491   0.000347   0.000000
    15  H    0.004846  -0.000078   0.417772  -0.001190   0.000007   0.000000
    16  H    0.000000   0.000491  -0.001190   0.439882  -0.000087   0.000000
    17  H    0.000000   0.000347   0.000007  -0.000087   0.399602  -0.000006
    18  H    0.000000   0.000000   0.000000   0.000000  -0.000006   0.532905
    19  H    0.000000   0.000000   0.000000   0.000000  -0.000015  -0.022896
    20  H    0.000000   0.000000   0.000000   0.000000  -0.000001  -0.022748
    21  H    0.000000  -0.000004   0.000002   0.000000   0.000651  -0.000024
    22  H    0.000004   0.000002  -0.000001   0.000000  -0.000020  -0.000021
    23  H   -0.038170   0.000000   0.000179   0.000002   0.000000  -0.000001
    24  H   -0.035928   0.000000   0.000190   0.000002   0.000002   0.000000
    25  H   -0.000003   0.000000   0.000000   0.000000  -0.000036   0.001186
    26  H    0.259979   0.000000  -0.000055   0.000000   0.000000   0.000000
             19         20         21         22         23         24
     1  C    0.000000   0.000000  -0.000058   0.000148   0.001670  -0.000877
     2  C    0.000000   0.000000  -0.000002  -0.000023   0.000026  -0.000011
     3  C    0.000015   0.000001  -0.003304   0.003399   0.000028   0.000039
     4  C    0.000000   0.000000   0.001617  -0.003807  -0.056163  -0.049598
     5  C    0.000048  -0.000004  -0.036865  -0.055979  -0.001908   0.000497
     6  C    0.000000   0.000000   0.000060  -0.000006   0.000000   0.000008
     7  C   -0.027092  -0.027864  -0.001013   0.002130  -0.000002   0.000001
     8  C    0.379424   0.381260   0.000440  -0.000041   0.000000   0.000000
     9  C   -0.000114  -0.000116   0.407242   0.418826  -0.000992  -0.001966
    10  C    0.000000   0.000000   0.000046  -0.000119   0.404986   0.402307
    11  N    0.001007   0.002175  -0.039664  -0.043658   0.000384  -0.000031
    12  O    0.000222   0.001097   0.008762   0.000371   0.000000   0.000000
    13  O    0.000000   0.000000   0.000000   0.000004  -0.038170  -0.035928
    14  Cl   0.000000   0.000000  -0.000004   0.000002   0.000000   0.000000
    15  H    0.000000   0.000000   0.000002  -0.000001   0.000179   0.000190
    16  H    0.000000   0.000000   0.000000   0.000000   0.000002   0.000002
    17  H   -0.000015  -0.000001   0.000651  -0.000020   0.000000   0.000002
    18  H   -0.022896  -0.022748  -0.000024  -0.000021  -0.000001   0.000000
    19  H    0.478005  -0.019097  -0.000009  -0.000001   0.000000   0.000000
    20  H   -0.019097   0.472314   0.000001   0.000006   0.000000   0.000000
    21  H   -0.000009   0.000001   0.432077  -0.020653   0.000035   0.000038
    22  H   -0.000001   0.000006  -0.020653   0.515659  -0.002112   0.001322
    23  H    0.000000   0.000000   0.000035  -0.002112   0.599570  -0.051223
    24  H    0.000000   0.000000   0.000038   0.001322  -0.051223   0.576732
    25  H   -0.000084   0.000065   0.002770  -0.001423   0.000467   0.000002
    26  H    0.000000   0.000000   0.000000   0.000001  -0.002521  -0.003783
             25         26
     1  C   -0.000008   0.000331
     2  C   -0.000005   0.000001
     3  C    0.000351   0.000002
     4  C    0.000530   0.005938
     5  C    0.001218  -0.000121
     6  C   -0.000002   0.000000
     7  C   -0.015308   0.000000
     8  C    0.000475   0.000000
     9  C   -0.022947   0.000008
    10  C    0.000115  -0.023288
    11  N    0.317738   0.000000
    12  O    0.002157   0.000000
    13  O   -0.000003   0.259979
    14  Cl   0.000000   0.000000
    15  H    0.000000  -0.000055
    16  H    0.000000   0.000000
    17  H   -0.000036   0.000000
    18  H    0.001186   0.000000
    19  H   -0.000084   0.000000
    20  H    0.000065   0.000000
    21  H    0.002770   0.000000
    22  H   -0.001423   0.000001
    23  H    0.000467  -0.002521
    24  H    0.000002  -0.003783
    25  H    0.329088   0.000000
    26  H    0.000000   0.315693
 Mulliken atomic charges:
              1
     1  C   -0.200198
     2  C   -0.181619
     3  C   -0.206946
     4  C   -0.051383
     5  C    0.001779
     6  C   -0.134857
     7  C    0.763797
     8  C   -0.577639
     9  C   -0.176204
    10  C    0.025518
    11  N   -0.790905
    12  O   -0.627807
    13  O   -0.750018
    14  Cl  -0.009777
    15  H    0.251915
    16  H    0.230070
    17  H    0.269076
    18  H    0.168354
    19  H    0.210585
    20  H    0.212910
    21  H    0.247856
    22  H    0.185997
    23  H    0.145747
    24  H    0.162278
    25  H    0.383653
    26  H    0.447816
 Sum of Mulliken atomic charges =   0.00000
 Mulliken charges with hydrogens summed into heavy atoms:
              1
     1  C    0.051717
     2  C    0.048451
     3  C    0.062130
     4  C   -0.051383
     5  C    0.001779
     6  C   -0.134857
     7  C    0.763797
     8  C    0.014210
     9  C    0.257649
    10  C    0.333542
    11  N   -0.407252
    12  O   -0.627807
    13  O   -0.302201
    14  Cl  -0.009777
 Sum of Mulliken charges with hydrogens summed into heavy atoms =   0.00000
 DipInt: DoE/N= T F RetVal/Mat= T F Init=T NMatP=  1 IDeriv=0 Min/MaxMlt=  0  4
 Entering OneElI...
 OneElI was handed    33406703 working-precision words.
 Multipole integrals L=0 to 4 MinM= 0 MaxM= 0.
 Requested accuracy = 0.1000D-12
 PrsmSu:  NPrtUS=   1 ThrOK=F IAlg=1 NPAlg=1 LenDen=           0.
 Prism:   IPart=     0 DynPar=F LinDyn=F Incr=          28.
 PRISM was handed    33149548 working-precision words and  2854 shell-pairs
 IPart=  0 NShTot=        2854 NBatch=          70 AvBLen=        40.8
 PrSmSu:  NxtVal=             29.
 Electronic moments (au):
       -112.00000000          0.19781404          2.32634032          0.73157724
      -2117.60103002      -1578.20304624       -218.55183276          2.54037010
          6.92359854         -2.68099076      -5185.84532323        429.94042523
        -43.78903237       4042.98097791        -38.55823881      -1243.89307086
       -604.13351305        -84.25479779       -171.84835588         10.33055851
     -80523.56841853     -54744.23507682      -1591.18090998       4835.13891439
      -6023.16779937        590.29732312       -449.53343985       -870.66748710
        151.38275407     -19554.64749906      -6452.95685299      -1815.78071264
      -1116.66883610       1564.46800730        253.35414091
 Electronic spatial extent (au):  <R**2>=           3914.3559
 DipInt: DoE/N= F T RetVal/Mat= T F Init=T NMatP=  1 IDeriv=0 Min/MaxMlt=  0  4
 Nuclear    moments (au):
        112.00000000          0.00000000          0.00000000          0.00000000
       2049.97252001       1516.96475476        151.12188302          0.00000000
          0.00000000          0.00000000       5189.57417752       -300.63193086
         44.09191333      -4058.16511857         63.48946378       1298.68135714
        614.54574555         91.39118444        168.59930395         -8.84763215
      73462.52910823      50391.24495986        830.64822231      -4697.72696380
       6248.81188264      -1023.33362760        436.49233343        870.09539071
       -144.98782973      17419.32801317       5069.68837037        796.60503672
       1033.36832830      -1508.73935613       -245.10214577
 Total      moments (au):
          0.00000000          0.19781404          2.32634032          0.73157724
        -67.62851002        -61.23829148        -67.42994973          2.54037010
          6.92359854         -2.68099076          3.72885430        129.30849437
          0.30288096        -15.18414066         24.93122496         54.78828629
         10.41223250          7.13638665         -3.24905193          1.48292637
      -7061.03931030      -4352.99011697       -760.53268767        137.41195059
        225.64408328       -433.03630447        -13.04110642         -0.57209640
          6.39492433      -2135.31948589      -1383.26848262      -1019.17567592
        -83.30050780         55.72865116          8.25199514
 Traceless Quadrup. (au):
         -2.19625961          4.19395893         -1.99769932          2.54037010
          6.92359854         -2.68099076
 Charge=              0.0000 electrons
 Dipole moment (field-independent basis, Debye):
    X=              0.5028    Y=              5.9130    Z=              1.8595  Tot=              6.2188
 Quadrupole moment (field-independent basis, Debye-Ang):
   XX=            -90.9627   YY=            -82.3676   ZZ=            -90.6956
   XY=              3.4169   XZ=              9.3125   YZ=             -3.6060
 Traceless Quadrupole moment (field-independent basis, Debye-Ang):
   XX=             -2.9540   YY=              5.6410   ZZ=             -2.6870
   XY=              3.4169   XZ=              9.3125   YZ=             -3.6060
 Octapole moment (field-independent basis, Debye-Ang**2):
  XXX=              2.6541  YYY=             92.0368  ZZZ=              0.2156  XYY=            -10.8075
  XXY=             17.7451  XXZ=             38.9962  XZZ=              7.4110  YZZ=              5.0794
  YYZ=             -2.3125  XYZ=              1.0555
 Hexadecapole moment (field-independent basis, Debye-Ang**3):
 XXXX=          -2659.5258 YYYY=          -1639.5447 ZZZZ=           -286.4531 XXXY=             51.7559
 XXXZ=             84.9884 YYYX=           -163.1022 YYYZ=             -4.9119 ZZZX=             -0.2155
 ZZZY=              2.4086 XXYY=           -804.2637 XXZZ=           -521.0052 YYZZ=           -383.8704
 XXYZ=            -31.3750 YYXZ=             20.9901 ZZXY=              3.1081
 N-N= 9.551240022677D+02 E-N=-4.384388346522D+03  KE= 1.047664133407D+03
 Entering OneElI...
 OneElI was handed    33292527 working-precision words.
 Calculate electrostatic properties
    NBasis =   238  MinDer = 0  MaxDer = 0
    NGrid  =    26  NMatD  =   1
 Requested accuracy = 0.1000D-12
 PrsmSu:  NPrtUS=   2 ThrOK=T IAlg=1 NPAlg=1 LenDen=           0.
 Prism:   IPart=     0 DynPar=F LinDyn=F Incr=         335.
 PRISM was handed    16488503 working-precision words and  2577 shell-pairs
 PRISM was handed    16488503 working-precision words and  2577 shell-pairs
 IPart=  0 NShTot=       33774 NBatch=        1299 AvBLen=        26.0
 IPart=  1 NShTot=       33228 NBatch=        1278 AvBLen=        26.0
 PrSmSu:  NxtVal=            671.
 --------------------------------------------------------
       Center         ----      EFG at Nuclei      ----
                      3XX-RR        3YY-RR        3ZZ-RR
 --------------------------------------------------------
     1   Atom        0.114420      0.175243     -0.289663
     2   Atom        0.072430      0.184401     -0.256832
     3   Atom        0.086567      0.172035     -0.258603
     4   Atom        0.150629      0.092572     -0.243201
     5   Atom        0.084042      0.171005     -0.255047
     6   Atom        0.338645     -0.292342     -0.046303
     7   Atom       -0.081117     -0.078692      0.159809
     8   Atom        0.004712      0.024724     -0.029436
     9   Atom       -0.098368      0.146450     -0.048082
    10   Atom       -0.172166      0.071282      0.100884
    11   Atom        0.020395      0.180689     -0.201083
    12   Atom        0.780341     -0.427828     -0.352512
    13   Atom       -0.155758     -1.280615      1.436373
    14   Atom        1.839649     -3.593584      1.753936
    15   Atom       -0.132839      0.005710      0.127129
    16   Atom       -0.179324      0.058710      0.120613
    17   Atom       -0.121366     -0.004985      0.126351
    18   Atom        0.141659     -0.133937     -0.007722
    19   Atom        0.134063     -0.151622      0.017559
    20   Atom       -0.244777      0.152832      0.091945
    21   Atom        0.091014      0.041817     -0.132830
    22   Atom        0.134632     -0.251771      0.117138
    23   Atom       -0.137360      0.092115      0.045244
    24   Atom        0.130615      0.100014     -0.230630
    25   Atom        0.180499      0.032367     -0.212866
    26   Atom        0.208740     -0.438798      0.230059
 --------------------------------------------------------
                        XY            XZ            YZ
 --------------------------------------------------------
     1   Atom       -0.016090     -0.168084     -0.003783
     2   Atom        0.012180     -0.133957     -0.012607
     3   Atom       -0.019665     -0.143175     -0.000294
     4   Atom       -0.005833     -0.156599     -0.005145
     5   Atom       -0.028962     -0.120847      0.007493
     6   Atom       -0.047759     -0.154349      0.019514
     7   Atom       -0.251192      0.287274      0.299577
     8   Atom       -0.003556     -0.053889     -0.013037
     9   Atom       -0.023272     -0.207907      0.073775
    10   Atom        0.161566      0.160941     -0.081149
    11   Atom        0.596409     -0.415825     -0.455471
    12   Atom       -0.748397      0.831875     -0.583350
    13   Atom        0.819317      1.035558     -0.045474
    14   Atom       -0.378914     -0.027380      0.215963
    15   Atom        0.196435      0.101535     -0.066678
    16   Atom       -0.164529      0.125426      0.060231
    17   Atom        0.192449      0.098949     -0.066299
    18   Atom        0.037924      0.016248     -0.212056
    19   Atom       -0.064995      0.035372      0.197661
    20   Atom        0.021551      0.140558     -0.007575
    21   Atom        0.066334      0.107193     -0.172271
    22   Atom        0.043616     -0.017556      0.115665
    23   Atom       -0.100928     -0.161982     -0.072163
    24   Atom       -0.002677      0.047349      0.114231
    25   Atom        0.065085      0.025161     -0.276313
    26   Atom       -0.017158      0.028356      0.096354
 --------------------------------------------------------


 ---------------------------------------------------------------------------------
              Nuclear Quadrupole in Principal Axis System
 ---------------------------------------------------------------------------------

       Atom             a.u.   MegaHertz   Gauss  10(-4) cm-1        Axes

              Baa    -0.3506   -47.046   -16.787   -15.693  0.3404  0.0172  0.9401
     1 C(13)  Bbb     0.1615    21.666     7.731     7.227  0.6632  0.7044 -0.2530
              Bcc     0.1891    25.381     9.056     8.466 -0.6666  0.7096  0.2284
 
              Baa    -0.3046   -40.870   -14.584   -13.633  0.3343  0.0160  0.9423
     2 C(13)  Bbb     0.1164    15.623     5.575     5.211  0.9196 -0.2246 -0.3224
              Bcc     0.1881    25.247     9.009     8.422  0.2065  0.9743 -0.0898
 
              Baa    -0.3104   -41.647   -14.861   -13.892  0.3399  0.0144  0.9403
     3 C(13)  Bbb     0.1302    17.467     6.232     5.826  0.8594  0.4014 -0.3168
              Bcc     0.1802    24.181     8.628     8.066 -0.3820  0.9158  0.1240
 
              Baa    -0.2980   -39.988   -14.269   -13.339  0.3297  0.0174  0.9439
     4 C(13)  Bbb     0.0926    12.421     4.432     4.143  0.0262  0.9993 -0.0275
              Bcc     0.2054    27.567     9.837     9.195  0.9437 -0.0338 -0.3290
 
              Baa    -0.2937   -39.414   -14.064   -13.147  0.3049  0.0037  0.9524
     5 C(13)  Bbb     0.1084    14.552     5.193     4.854  0.8590  0.4308 -0.2767
              Bcc     0.1853    24.861     8.871     8.293 -0.4113  0.9024  0.1282
 
              Baa    -0.2962   -39.751   -14.184   -13.260  0.0660  0.9971 -0.0371
     6 C(13)  Bbb    -0.1005   -13.488    -4.813    -4.499  0.3328  0.0131  0.9429
              Bcc     0.3967    53.239    18.997    17.759  0.9407 -0.0746 -0.3310
 
              Baa    -0.5678   -76.191   -27.187   -25.415  0.6111  0.6173 -0.4955
     7 C(13)  Bbb     0.1710    22.947     8.188     7.654  0.7220 -0.6913  0.0292
              Bcc     0.3968    53.244    18.999    17.760  0.3244  0.3756  0.8681
 
              Baa    -0.0706    -9.469    -3.379    -3.159  0.5811  0.1316  0.8031
     8 C(13)  Bbb     0.0252     3.380     1.206     1.127 -0.2736  0.9610  0.0405
              Bcc     0.0454     6.090     2.173     2.031  0.7665  0.2432 -0.5945
 
              Baa    -0.2850   -38.246   -13.647   -12.758  0.7379 -0.0749  0.6708
     9 C(13)  Bbb     0.0718     9.632     3.437     3.213  0.5340  0.6726 -0.5123
              Bcc     0.2132    28.614    10.210     9.545 -0.4128  0.7362  0.5363
 
              Baa    -0.3284   -44.069   -15.725   -14.700  0.8248 -0.4120 -0.3871
    10 C(13)  Bbb     0.1518    20.373     7.270     6.796  0.4569  0.8891  0.0273
              Bcc     0.1766    23.696     8.455     7.904  0.3329 -0.1994  0.9216
 
              Baa    -0.5208   -20.085    -7.167    -6.700  0.6416 -0.0485  0.7655
    11 N(14)  Bbb    -0.4942   -19.061    -6.801    -6.358 -0.4900  0.7419  0.4577
              Bcc     1.0150    39.146    13.968    13.058  0.5901  0.6688 -0.4523
 
              Baa    -0.9755    70.587    25.187    23.545 -0.0335  0.7069  0.7066
    12 O(17)  Bbb    -0.6685    48.369    17.259    16.134  0.6101  0.5744 -0.5458
              Bcc     1.6440  -118.956   -42.446   -39.679  0.7916 -0.4128  0.4505
 
              Baa    -1.8075   130.790    46.669    43.627 -0.5251  0.8320  0.1793
    13 O(17)  Bbb    -0.1729    12.508     4.463     4.172  0.7121  0.5448 -0.4428
              Bcc     1.9804  -143.298   -51.132   -47.799  0.4661  0.1049  0.8785
 
              Baa    -3.6284  -189.900   -67.761   -63.344  0.0689  0.9968 -0.0396
    14 Cl(35) Bbb     1.7474    91.453    32.633    30.505  0.3373  0.0141  0.9413
              Bcc     1.8810    98.447    35.128    32.838  0.9389 -0.0782 -0.3353
 
              Baa    -0.3059  -163.210   -58.237   -54.441  0.7874 -0.5542 -0.2700
    15 H(1)   Bbb     0.1438    76.713    27.373    25.589  0.5103  0.8317 -0.2188
              Bcc     0.1621    86.497    30.864    28.852  0.3458  0.0345  0.9377
 
              Baa    -0.3085  -164.582   -58.727   -54.899  0.8482  0.4307 -0.3084
    16 H(1)   Bbb     0.1423    75.928    27.093    25.327 -0.4108  0.9024  0.1303
              Bcc     0.1662    88.654    31.634    29.572  0.3344  0.0162  0.9423
 
              Baa    -0.2976  -158.795   -56.662   -52.968  0.7752 -0.5710 -0.2702
    17 H(1)   Bbb     0.1366    72.864    26.000    24.305  0.5267  0.8204 -0.2226
              Bcc     0.1611    85.932    30.663    28.664  0.3488  0.0303  0.9367
 
              Baa    -0.2958  -157.802   -56.308   -52.637 -0.0914  0.7995  0.5937
    18 H(1)   Bbb     0.1379    73.599    26.262    24.550  0.7889 -0.3057  0.5330
              Bcc     0.1578    84.203    30.046    28.087  0.6076  0.5171 -0.6028
 
              Baa    -0.2947  -157.245   -56.109   -52.451  0.1695  0.8239 -0.5407
    19 H(1)   Bbb     0.1411    75.310    26.873    25.121  0.7303  0.2634  0.6303
              Bcc     0.1536    81.935    29.236    27.331  0.6618 -0.5017 -0.5571
 
              Baa    -0.2969  -158.411   -56.525   -52.840  0.9389 -0.0507 -0.3404
    20 H(1)   Bbb     0.1429    76.245    27.206    25.433  0.3398 -0.0202  0.9403
              Bcc     0.1540    82.165    29.319    27.407  0.0546  0.9985  0.0017
 
              Baa    -0.2813  -150.100   -53.560   -50.068 -0.3207  0.4960  0.8069
    21 H(1)   Bbb     0.1337    71.325    25.451    23.791  0.9468  0.1435  0.2880
              Bcc     0.1476    78.775    28.109    26.277  0.0270  0.8564 -0.5157
 
              Baa    -0.2902  -154.829   -55.247   -51.645 -0.1094  0.9549 -0.2759
    22 H(1)   Bbb     0.1379    73.599    26.262    24.550  0.9278  0.1977  0.3163
              Bcc     0.1522    81.230    28.985    27.095 -0.3566  0.2214  0.9077
 
              Baa    -0.2738  -146.063   -52.119   -48.721  0.8135  0.3202  0.4855
    23 H(1)   Bbb     0.1257    67.049    23.925    22.365 -0.5293  0.7535  0.3900
              Bcc     0.1481    79.014    28.194    26.356 -0.2410 -0.5742  0.7824
 
              Baa    -0.2715  -144.871   -51.694   -48.324 -0.1137 -0.2927  0.9494
    24 H(1)   Bbb     0.1243    66.317    23.664    22.121 -0.6987  0.7029  0.1330
              Bcc     0.1472    78.554    28.030    26.203  0.7063  0.6482  0.2845
 
              Baa    -0.3981  -212.410   -75.793   -70.852 -0.0978  0.5480  0.8307
    25 H(1)   Bbb     0.1564    83.430    29.770    27.829  0.8035 -0.4490  0.3908
              Bcc     0.2417   128.980    46.023    43.023  0.5872  0.7057 -0.3965
 
              Baa    -0.4531  -241.735   -86.257   -80.634  0.0317  0.9895 -0.1409
    26 H(1)   Bbb     0.1957   104.403    37.254    34.825  0.8813 -0.0942 -0.4630
              Bcc     0.2574   137.332    49.003    45.809  0.4714  0.1095  0.8751
 

 ---------------------------------------------------------------------------------

 No NMR shielding tensors so no spin-rotation constants.
 Leave Link  601 at Sat Feb 17 21:06:50 2018, MaxMem=   33554432 cpu:       0.6
 Merz-Kollman atomic radii used.
 Read replacement radii for each type of atom:
 Atom Element Radius
    1     6    1.50
    2     6    1.50
    3     6    1.50
    4     6    1.50
    5     6    1.50
    6     6    1.50
    7     6    1.50
    8     6    1.50
    9     6    1.50
   10     6    1.50
   11     7    1.50
   12     8    1.40
   13     8    1.40
   14    17    1.70
   15     1    1.20
   16     1    1.20
   17     1    1.20
   18     1    1.20
   19     1    1.20
   20     1    1.20
   21     1    1.20
   22     1    1.20
   23     1    1.20
   24     1    1.20
   25     1    1.20
   26     1    1.20
 Generate VDW surfaces: Layer= 4 Dens= 1 Start= 1.400 Inc= 0.200

 **********************************************************************

            Electrostatic Properties Using The SCF Density

 **********************************************************************

       Atomic Center    1 is at  -2.423089  0.631321  0.322438
       Atomic Center    2 is at  -2.529660 -0.756750  0.385665
       Atomic Center    3 is at  -0.253812 -0.943982 -0.424171
       Atomic Center    4 is at  -1.243456  1.250716 -0.104343
       Atomic Center    5 is at  -0.148097  0.451838 -0.482507
       Atomic Center    6 is at  -1.436800 -1.533634  0.009273
       Atomic Center    7 is at   3.166118 -0.044661  0.056504
       Atomic Center    8 is at   4.120061 -0.064396  1.241012
       Atomic Center    9 is at   1.178495  1.042003 -0.939488
       Atomic Center   10 is at  -1.169663  2.765589 -0.169786
       Atomic Center   11 is at   2.231563  0.958660  0.070572
       Atomic Center   12 is at   3.240043 -0.867342 -0.848962
       Atomic Center   13 is at  -2.346446  3.325977  0.391820
       Atomic Center   14 is at  -1.555159 -3.289259  0.077608
       Atomic Center   15 is at  -3.263803  1.250685  0.611568
       Atomic Center   16 is at  -3.447932 -1.228204  0.719475
       Atomic Center   17 is at   0.592807 -1.557402 -0.716376
       Atomic Center   18 is at   4.029675  0.807953  1.895967
       Atomic Center   19 is at   3.934796 -0.969418  1.829149
       Atomic Center   20 is at   5.144605 -0.124255  0.863685
       Atomic Center   21 is at   1.555967  0.484730 -1.799840
       Atomic Center   22 is at   1.070099  2.086820 -1.244947
       Atomic Center   23 is at  -0.276045  3.120976  0.371102
       Atomic Center   24 is at  -1.049657  3.084514 -1.219099
       Atomic Center   25 is at   2.129333  1.509312  0.911620
       Atomic Center   26 is at  -2.312431  4.283712  0.253901
      ESP Fit Center   27 is at  -2.423089  0.631321  2.422438
      ESP Fit Center   28 is at  -1.373089  0.631321  2.141092
      ESP Fit Center   29 is at  -1.898089  1.540648  2.141092
      ESP Fit Center   30 is at  -4.168074  0.118947 -0.727562
      ESP Fit Center   31 is at  -2.948089  1.540648 -1.496215
      ESP Fit Center   32 is at  -3.473089  0.631321 -1.496215
      ESP Fit Center   33 is at  -2.423089  0.631321 -1.777562
      ESP Fit Center   34 is at  -2.529660 -0.756750  2.485665
      ESP Fit Center   35 is at  -1.479660 -0.756750  2.204319
      ESP Fit Center   36 is at  -2.004660 -1.666077  2.204319
      ESP Fit Center   37 is at  -4.274645 -0.244376 -0.664335
      ESP Fit Center   38 is at  -3.579660 -0.756750 -1.432988
      ESP Fit Center   39 is at  -3.054660 -1.666077 -1.432988
      ESP Fit Center   40 is at  -2.529660 -0.756750 -1.714335
      ESP Fit Center   41 is at  -0.253812 -0.943982  1.675829
      ESP Fit Center   42 is at   0.796188 -0.943982  1.394483
      ESP Fit Center   43 is at   0.271188 -1.853308  1.394483
      ESP Fit Center   44 is at  -1.303812 -0.943982 -2.242824
      ESP Fit Center   45 is at  -0.778812 -1.853308 -2.242824
      ESP Fit Center   46 is at  -0.253812 -0.943982 -2.524171
      ESP Fit Center   47 is at  -1.243456  1.250716  1.995657
      ESP Fit Center   48 is at  -0.193456  1.250716  1.714311
      ESP Fit Center   49 is at  -0.718456  0.341390  1.714311
      ESP Fit Center   50 is at  -2.293456  1.250716 -1.922996
      ESP Fit Center   51 is at  -1.768456  0.341390 -1.922996
      ESP Fit Center   52 is at  -1.243456  1.250716 -2.204343
      ESP Fit Center   53 is at  -0.148097  0.451838  1.617493
      ESP Fit Center   54 is at   0.376903  1.361165  1.336147
      ESP Fit Center   55 is at  -0.673097  1.361165 -2.301160
      ESP Fit Center   56 is at  -1.198097  0.451838 -2.301160
      ESP Fit Center   57 is at  -0.148097  0.451838 -2.582507
      ESP Fit Center   58 is at  -1.436800 -1.533634  2.109273
      ESP Fit Center   59 is at  -0.386800 -1.533634  1.827927
      ESP Fit Center   60 is at  -0.911800 -0.624307  1.827927
      ESP Fit Center   61 is at  -1.961800 -0.624307 -1.809380
      ESP Fit Center   62 is at  -2.486800 -1.533634 -1.809380
      ESP Fit Center   63 is at  -1.436800 -1.533634 -2.090727
      ESP Fit Center   64 is at   1.975153 -1.419108  1.106504
      ESP Fit Center   65 is at   4.359053  1.683605  0.056504
      ESP Fit Center   66 is at   4.696066  0.938577 -0.993496
      ESP Fit Center   67 is at   3.921613  1.609644 -0.993496
      ESP Fit Center   68 is at   3.691118  0.864665 -1.762149
      ESP Fit Center   69 is at   4.120061 -0.064396  3.341012
      ESP Fit Center   70 is at   5.170061 -0.064396  3.059665
      ESP Fit Center   71 is at   3.070061 -0.064396  3.059665
      ESP Fit Center   72 is at   2.375076  0.447978  2.291012
      ESP Fit Center   73 is at   5.650010 -1.047634  2.291012
      ESP Fit Center   74 is at   5.312997 -1.792662  1.241012
      ESP Fit Center   75 is at   4.875557  1.589909  0.191012
      ESP Fit Center   76 is at   4.875557 -1.718701  0.191012
      ESP Fit Center   77 is at   2.708444  2.025241 -1.989488
      ESP Fit Center   78 is at   0.128495  1.042003 -2.758142
      ESP Fit Center   79 is at  -1.169663  2.765589  1.930214
      ESP Fit Center   80 is at  -2.914648  2.253216 -1.219786
      ESP Fit Center   81 is at   1.706563  0.049333  1.889226
      ESP Fit Center   82 is at   4.091021  1.934579  0.070572
      ESP Fit Center   83 is at   3.424499  2.686926  0.070572
      ESP Fit Center   84 is at   2.484690  3.043349  0.070572
      ESP Fit Center   85 is at   3.761512  1.941898 -0.979428
      ESP Fit Center   86 is at   2.987059  2.612965 -0.979428
      ESP Fit Center   87 is at   2.715515 -2.481674  0.131038
      ESP Fit Center   88 is at   3.764572 -2.481674  0.131038
      ESP Fit Center   89 is at   4.613276 -1.865054  0.131038
      ESP Fit Center   90 is at   5.200043 -0.867342 -0.848962
      ESP Fit Center   91 is at   2.260043 -2.564751 -0.848962
      ESP Fit Center   92 is at   3.240043 -2.827342 -0.848962
      ESP Fit Center   93 is at   4.220043 -2.564751 -0.848962
      ESP Fit Center   94 is at   4.937453 -1.847342 -0.848962
      ESP Fit Center   95 is at   4.937453 -0.867342 -1.828962
      ESP Fit Center   96 is at   4.613276  0.130371 -1.828962
      ESP Fit Center   97 is at   3.764572  0.746991 -1.828962
      ESP Fit Center   98 is at   1.866810 -1.865054 -1.828962
      ESP Fit Center   99 is at   2.715515 -2.481674 -1.828962
      ESP Fit Center  100 is at   3.764572 -2.481674 -1.828962
      ESP Fit Center  101 is at   4.613276 -1.865054 -1.828962
      ESP Fit Center  102 is at   4.220043 -0.867342 -2.546371
      ESP Fit Center  103 is at   3.730043 -0.018637 -2.546371
      ESP Fit Center  104 is at   2.260043 -0.867342 -2.546371
      ESP Fit Center  105 is at   2.750043 -1.716046 -2.546371
      ESP Fit Center  106 is at   3.730043 -1.716046 -2.546371
      ESP Fit Center  107 is at   3.240043 -0.867342 -2.808962
      ESP Fit Center  108 is at  -2.346446  3.325977  2.351820
      ESP Fit Center  109 is at  -1.366446  3.325977  2.089230
      ESP Fit Center  110 is at  -1.856446  4.174682  2.089230
      ESP Fit Center  111 is at  -2.836446  4.174682  2.089230
      ESP Fit Center  112 is at  -3.326446  3.325977  2.089230
      ESP Fit Center  113 is at  -2.836446  2.477272  2.089230
      ESP Fit Center  114 is at  -1.856446  2.477272  2.089230
      ESP Fit Center  115 is at  -0.973213  4.323689  1.371820
      ESP Fit Center  116 is at  -3.719680  4.323689  1.371820
      ESP Fit Center  117 is at  -4.043856  3.325977  1.371820
      ESP Fit Center  118 is at  -4.043856  4.305977  0.391820
      ESP Fit Center  119 is at  -4.306446  3.325977  0.391820
      ESP Fit Center  120 is at  -4.043856  3.325977 -0.588180
      ESP Fit Center  121 is at  -3.326446  3.325977 -1.305589
      ESP Fit Center  122 is at  -1.555159 -3.289259  2.457608
      ESP Fit Center  123 is at  -0.522516 -3.289259  2.221914
      ESP Fit Center  124 is at  -1.038838 -2.394963  2.221914
      ESP Fit Center  125 is at  -2.071481 -2.394963  2.221914
      ESP Fit Center  126 is at  -2.587802 -3.289259  2.221914
      ESP Fit Center  127 is at  -2.071481 -4.183554  2.221914
      ESP Fit Center  128 is at  -1.038838 -4.183554  2.221914
      ESP Fit Center  129 is at   0.305600 -3.289259  1.561513
      ESP Fit Center  130 is at  -0.049774 -2.195532  1.561513
      ESP Fit Center  131 is at  -3.415918 -3.289259  1.561513
      ESP Fit Center  132 is at  -3.060545 -4.382985  1.561513
      ESP Fit Center  133 is at  -2.130165 -5.058945  1.561513
      ESP Fit Center  134 is at  -0.980153 -5.058945  1.561513
      ESP Fit Center  135 is at  -0.049774 -4.382985  1.561513
      ESP Fit Center  136 is at   0.765169 -3.289259  0.607207
      ESP Fit Center  137 is at  -3.808063 -3.844549  0.607207
      ESP Fit Center  138 is at  -3.291950 -4.827921  0.607207
      ESP Fit Center  139 is at  -2.377959 -5.458803  0.607207
      ESP Fit Center  140 is at  -1.275475 -5.592669  0.607207
      ESP Fit Center  141 is at  -0.237062 -5.198851  0.607207
      ESP Fit Center  142 is at   0.499390 -4.367569  0.607207
      ESP Fit Center  143 is at   0.765169 -3.289259 -0.451992
      ESP Fit Center  144 is at  -3.808063 -2.733968 -0.451992
      ESP Fit Center  145 is at  -3.808063 -3.844549 -0.451992
      ESP Fit Center  146 is at  -3.291950 -4.827921 -0.451992
      ESP Fit Center  147 is at  -2.377959 -5.458803 -0.451992
      ESP Fit Center  148 is at  -1.275475 -5.592669 -0.451992
      ESP Fit Center  149 is at  -0.237062 -5.198851 -0.451992
      ESP Fit Center  150 is at   0.499390 -4.367569 -0.451992
      ESP Fit Center  151 is at   0.305600 -3.289259 -1.406298
      ESP Fit Center  152 is at  -3.060545 -2.195532 -1.406298
      ESP Fit Center  153 is at  -3.415918 -3.289259 -1.406298
      ESP Fit Center  154 is at  -3.060545 -4.382985 -1.406298
      ESP Fit Center  155 is at  -2.130165 -5.058945 -1.406298
      ESP Fit Center  156 is at  -0.980153 -5.058945 -1.406298
      ESP Fit Center  157 is at  -0.049774 -4.382985 -1.406298
      ESP Fit Center  158 is at  -0.522516 -3.289259 -2.066698
      ESP Fit Center  159 is at  -1.038838 -2.394963 -2.066698
      ESP Fit Center  160 is at  -2.071481 -2.394963 -2.066698
      ESP Fit Center  161 is at  -2.587802 -3.289259 -2.066698
      ESP Fit Center  162 is at  -2.071481 -4.183554 -2.066698
      ESP Fit Center  163 is at  -1.038838 -4.183554 -2.066698
      ESP Fit Center  164 is at  -1.555159 -3.289259 -2.302392
      ESP Fit Center  165 is at  -3.263803  1.250685  2.291568
      ESP Fit Center  166 is at  -2.958655  2.189834  1.970716
      ESP Fit Center  167 is at  -4.062690  1.831111  1.970716
      ESP Fit Center  168 is at  -4.062690  0.670260  1.970716
      ESP Fit Center  169 is at  -4.062690  2.634399  1.130716
      ESP Fit Center  170 is at  -4.765220  1.797157  1.130716
      ESP Fit Center  171 is at  -4.765220  0.704214  1.130716
      ESP Fit Center  172 is at  -4.765220  1.797157  0.092419
      ESP Fit Center  173 is at  -4.765220  0.704214  0.092419
      ESP Fit Center  174 is at  -4.062690  1.831111 -0.747581
      ESP Fit Center  175 is at  -3.447932 -1.228204  2.399475
      ESP Fit Center  176 is at  -4.246819 -0.647779  2.078624
      ESP Fit Center  177 is at  -4.246819 -1.808630  2.078624
      ESP Fit Center  178 is at  -3.142784 -2.167353  2.078624
      ESP Fit Center  179 is at  -4.949349 -0.681733  1.238624
      ESP Fit Center  180 is at  -4.949349 -1.774676  1.238624
      ESP Fit Center  181 is at  -4.246819 -2.611918  1.238624
      ESP Fit Center  182 is at  -4.949349 -0.681733  0.200327
      ESP Fit Center  183 is at  -4.949349 -1.774676  0.200327
      ESP Fit Center  184 is at  -4.246819 -2.611918  0.200327
      ESP Fit Center  185 is at  -4.246819 -1.808630 -0.639673
      ESP Fit Center  186 is at   1.580286 -1.557402  0.642773
      ESP Fit Center  187 is at   0.897955 -2.496550  0.642773
      ESP Fit Center  188 is at   0.870258 -3.130903 -0.197227
      ESP Fit Center  189 is at   1.816773 -2.584432 -0.197227
      ESP Fit Center  190 is at   0.870258 -3.130903 -1.235524
      ESP Fit Center  191 is at   1.816773 -2.584432 -1.235524
      ESP Fit Center  192 is at   1.580286 -1.557402 -2.075524
      ESP Fit Center  193 is at   0.897955 -2.496550 -2.075524
      ESP Fit Center  194 is at   0.592807 -1.557402 -2.396376
      ESP Fit Center  195 is at   4.029675  0.807953  3.575967
      ESP Fit Center  196 is at   5.017154  0.807953  3.255115
      ESP Fit Center  197 is at   4.334823  1.747101  3.255115
      ESP Fit Center  198 is at   3.230787  1.388378  3.255115
      ESP Fit Center  199 is at   3.230787  0.227527  3.255115
      ESP Fit Center  200 is at   5.627450  0.807953  2.415115
      ESP Fit Center  201 is at   5.253642  1.834983  2.415115
      ESP Fit Center  202 is at   4.307126  2.381454  2.415115
      ESP Fit Center  203 is at   3.230787  2.191666  2.415115
      ESP Fit Center  204 is at   5.253642  1.834983  1.376818
      ESP Fit Center  205 is at   4.307126  2.381454  1.376818
      ESP Fit Center  206 is at   3.934796 -0.969418  3.509149
      ESP Fit Center  207 is at   4.922275 -0.969418  3.188297
      ESP Fit Center  208 is at   3.135908 -0.388992  3.188297
      ESP Fit Center  209 is at   3.135908 -1.549844  3.188297
      ESP Fit Center  210 is at   4.239944 -1.908567  3.188297
      ESP Fit Center  211 is at   2.433379 -1.515889  2.348297
      ESP Fit Center  212 is at   3.135908 -2.353132  2.348297
      ESP Fit Center  213 is at   4.212247 -2.542919  2.348297
      ESP Fit Center  214 is at   5.158762 -1.996448  2.348297
      ESP Fit Center  215 is at   3.135908 -2.353132  1.310000
      ESP Fit Center  216 is at   4.212247 -2.542919  1.310000
      ESP Fit Center  217 is at   5.158762 -1.996448  1.310000
      ESP Fit Center  218 is at   6.132084 -0.124255  2.222834
      ESP Fit Center  219 is at   6.742380 -0.124255  1.382834
      ESP Fit Center  220 is at   6.368571  0.902775  1.382834
      ESP Fit Center  221 is at   6.368571 -1.151285  1.382834
      ESP Fit Center  222 is at   6.742380 -0.124255  0.344537
      ESP Fit Center  223 is at   6.368571  0.902775  0.344537
      ESP Fit Center  224 is at   5.422055  1.449246  0.344537
      ESP Fit Center  225 is at   5.422055 -1.697756  0.344537
      ESP Fit Center  226 is at   6.368571 -1.151285  0.344537
      ESP Fit Center  227 is at   6.132084 -0.124255 -0.495463
      ESP Fit Center  228 is at   5.449753  0.814894 -0.495463
      ESP Fit Center  229 is at   5.449753 -1.063403 -0.495463
      ESP Fit Center  230 is at   5.144605 -0.124255 -0.816315
      ESP Fit Center  231 is at   3.153742  0.484730 -2.318988
      ESP Fit Center  232 is at   2.779933  1.511760 -2.318988
      ESP Fit Center  233 is at   0.757079 -0.898984 -2.318988
      ESP Fit Center  234 is at   1.833417 -1.088772 -2.318988
      ESP Fit Center  235 is at   2.543446  0.484730 -3.158988
      ESP Fit Center  236 is at   1.861115  1.423878 -3.158988
      ESP Fit Center  237 is at   0.757079  1.065155 -3.158988
      ESP Fit Center  238 is at   0.757079 -0.095696 -3.158988
      ESP Fit Center  239 is at   1.861115 -0.454419 -3.158988
      ESP Fit Center  240 is at   1.555967  0.484730 -3.479840
      ESP Fit Center  241 is at   2.294065  3.113850 -0.725799
      ESP Fit Center  242 is at   1.347549  3.660321 -0.725799
      ESP Fit Center  243 is at   2.294065  3.113850 -1.764096
      ESP Fit Center  244 is at   1.347549  3.660321 -1.764096
      ESP Fit Center  245 is at   2.057578  2.086820 -2.604096
      ESP Fit Center  246 is at   1.375246  3.025969 -2.604096
      ESP Fit Center  247 is at   0.271211  2.667246 -2.604096
      ESP Fit Center  248 is at   1.070099  2.086820 -2.924947
      ESP Fit Center  249 is at  -0.276045  3.120976  2.051102
      ESP Fit Center  250 is at   0.711435  3.120976  1.730251
      ESP Fit Center  251 is at   0.029103  4.060124  1.730251
      ESP Fit Center  252 is at   0.029103  2.181827  1.730251
      ESP Fit Center  253 is at   1.321730  3.120976  0.890251
      ESP Fit Center  254 is at   0.947922  4.148006  0.890251
      ESP Fit Center  255 is at   0.001406  4.694477  0.890251
      ESP Fit Center  256 is at   0.947922  4.148006 -0.148046
      ESP Fit Center  257 is at   0.001406  4.694477 -0.148046
      ESP Fit Center  258 is at   0.174309  4.111544 -1.738247
      ESP Fit Center  259 is at  -0.772207  4.658015 -1.738247
      ESP Fit Center  260 is at  -1.848545  4.468227 -1.738247
      ESP Fit Center  261 is at  -2.551075  3.630985 -1.738247
      ESP Fit Center  262 is at  -2.551075  2.538043 -1.738247
      ESP Fit Center  263 is at  -0.062178  3.084514 -2.578247
      ESP Fit Center  264 is at  -0.744509  4.023662 -2.578247
      ESP Fit Center  265 is at  -1.848545  3.664940 -2.578247
      ESP Fit Center  266 is at  -1.848545  2.504088 -2.578247
      ESP Fit Center  267 is at  -0.744509  2.145365 -2.578247
      ESP Fit Center  268 is at  -1.049657  3.084514 -2.899099
      ESP Fit Center  269 is at   2.129333  1.509312  2.591620
      ESP Fit Center  270 is at   2.434481  2.448460  2.270769
      ESP Fit Center  271 is at   1.330446  2.089737  2.270769
      ESP Fit Center  272 is at   1.330446  0.928886  2.270769
      ESP Fit Center  273 is at   3.353300  2.536342  1.430769
      ESP Fit Center  274 is at   2.406784  3.082813  1.430769
      ESP Fit Center  275 is at   1.330446  2.893025  1.430769
      ESP Fit Center  276 is at   0.627916  2.055783  1.430769
      ESP Fit Center  277 is at   0.627916  0.962840  1.430769
      ESP Fit Center  278 is at   2.406784  3.082813  0.392471
      ESP Fit Center  279 is at  -2.007283  5.222860  1.613050
      ESP Fit Center  280 is at  -3.111319  4.864137  1.613050
      ESP Fit Center  281 is at  -1.088465  5.310741  0.773050
      ESP Fit Center  282 is at  -2.034980  5.857213  0.773050
      ESP Fit Center  283 is at  -3.111319  5.667425  0.773050
      ESP Fit Center  284 is at  -3.813849  4.830183  0.773050
      ESP Fit Center  285 is at  -1.088465  5.310741 -0.265247
      ESP Fit Center  286 is at  -2.034980  5.857213 -0.265247
      ESP Fit Center  287 is at  -3.111319  5.667425 -0.265247
      ESP Fit Center  288 is at  -3.813849  4.830183 -0.265247
      ESP Fit Center  289 is at  -2.007283  5.222860 -1.105247
      ESP Fit Center  290 is at  -3.111319  4.864137 -1.105247
      ESP Fit Center  291 is at  -2.312431  4.283712 -1.426099
      ESP Fit Center  292 is at  -2.423089  0.631321  2.722438
      ESP Fit Center  293 is at  -1.381768  0.631321  2.484764
      ESP Fit Center  294 is at  -1.902429  1.533131  2.484764
      ESP Fit Center  295 is at  -2.943750  1.533131  2.484764
      ESP Fit Center  296 is at  -3.464410  0.631321  2.484764
      ESP Fit Center  297 is at  -3.651867  2.049406 -1.173937
      ESP Fit Center  298 is at  -4.223478  1.159963 -1.173937
      ESP Fit Center  299 is at  -4.223478  0.102679 -1.173937
      ESP Fit Center  300 is at  -2.943750  1.533131 -1.839887
      ESP Fit Center  301 is at  -3.464410  0.631321 -1.839887
      ESP Fit Center  302 is at  -2.529660 -0.756750  2.785665
      ESP Fit Center  303 is at  -1.488339 -0.756750  2.547990
      ESP Fit Center  304 is at  -3.050321 -1.658561  2.547990
      ESP Fit Center  305 is at  -2.009000 -1.658561  2.547990
      ESP Fit Center  306 is at  -4.330049 -0.228108 -1.110710
      ESP Fit Center  307 is at  -4.330049 -1.285392 -1.110710
      ESP Fit Center  308 is at  -3.758438 -2.174835 -1.110710
      ESP Fit Center  309 is at  -3.570981 -0.756750 -1.776660
      ESP Fit Center  310 is at  -3.050321 -1.658561 -1.776660
      ESP Fit Center  311 is at  -2.529660 -0.756750 -2.014335
      ESP Fit Center  312 is at   0.787509 -0.943982  1.738154
      ESP Fit Center  313 is at   0.266848 -1.845792  1.738154
      ESP Fit Center  314 is at   1.324712 -1.958438  1.072205
      ESP Fit Center  315 is at  -1.295133 -0.943982 -2.586496
      ESP Fit Center  316 is at  -0.774472 -1.845792 -2.586496
      ESP Fit Center  317 is at   0.266848 -1.845792 -2.586496
      ESP Fit Center  318 is at  -0.253812 -0.943982 -2.824171
      ESP Fit Center  319 is at  -0.202135  1.250716  2.057983
      ESP Fit Center  320 is at  -0.722796  0.348906  2.057983
      ESP Fit Center  321 is at  -2.284777  1.250716 -2.266668
      ESP Fit Center  322 is at  -1.764117  0.348906 -2.266668
      ESP Fit Center  323 is at  -1.243456  1.250716 -2.504343
      ESP Fit Center  324 is at  -0.148097  0.451838  1.917493
      ESP Fit Center  325 is at   0.372563  1.353649  1.679819
      ESP Fit Center  326 is at  -1.948486 -0.076803 -1.978882
      ESP Fit Center  327 is at  -0.668758  1.353649 -2.644832
      ESP Fit Center  328 is at  -1.189418  0.451838 -2.644832
      ESP Fit Center  329 is at  -0.148097  0.451838 -2.882507
      ESP Fit Center  330 is at  -1.436800 -1.533634  2.409273
      ESP Fit Center  331 is at  -0.395479 -1.533634  2.171599
      ESP Fit Center  332 is at  -0.916139 -0.631823  2.171599
      ESP Fit Center  333 is at  -1.957460 -0.631823 -2.153052
      ESP Fit Center  334 is at  -2.478121 -1.533634 -2.153052
      ESP Fit Center  335 is at   1.937340 -1.462747  1.552879
      ESP Fit Center  336 is at   4.624976  1.784689 -0.477546
      ESP Fit Center  337 is at   4.744642  0.969795 -1.439872
      ESP Fit Center  338 is at   4.120061 -0.064396  3.641012
      ESP Fit Center  339 is at   5.161382 -0.064396  3.403337
      ESP Fit Center  340 is at   3.078740 -0.064396  3.403337
      ESP Fit Center  341 is at   5.996457 -0.064396  2.737387
      ESP Fit Center  342 is at   2.319673  0.464246  2.737387
      ESP Fit Center  343 is at   5.698586 -1.078852  2.737387
      ESP Fit Center  344 is at   5.578920  1.764954  0.706961
      ESP Fit Center  345 is at   4.640722  2.216767  0.706961
      ESP Fit Center  346 is at   4.899544  1.642434 -0.255364
      ESP Fit Center  347 is at   2.757019  2.056459 -2.435864
      ESP Fit Center  348 is at   1.699155  1.943813 -3.101814
      ESP Fit Center  349 is at   0.137174  1.042003 -3.101814
      ESP Fit Center  350 is at  -1.169663  2.765589  2.230214
      ESP Fit Center  351 is at  -0.649002  5.046752 -0.703836
      ESP Fit Center  352 is at  -2.970051  2.236948 -1.666162
      ESP Fit Center  353 is at   1.710903  0.056850  2.232897
      ESP Fit Center  354 is at   1.002786 -0.459425  1.566948
      ESP Fit Center  355 is at   3.690422  2.788011  0.604622
      ESP Fit Center  356 is at   3.690422  2.788011 -0.463478
      ESP Fit Center  357 is at   2.752224  3.239823 -0.463478
      ESP Fit Center  358 is at   3.810088  1.973116 -1.425803
      ESP Fit Center  359 is at   3.011046  2.665490 -1.425803
      ESP Fit Center  360 is at   2.698861 -2.532929  0.547656
      ESP Fit Center  361 is at   3.781225 -2.532929  0.547656
      ESP Fit Center  362 is at   2.465643 -2.909266 -0.350515
      ESP Fit Center  363 is at   3.503276 -3.035257 -0.350515
      ESP Fit Center  364 is at   4.480605 -2.664605 -0.350515
      ESP Fit Center  365 is at   5.173736 -1.882222 -0.350515
      ESP Fit Center  366 is at   5.423882 -0.867342 -1.347408
      ESP Fit Center  367 is at   5.173736  0.147539 -1.347408
      ESP Fit Center  368 is at   2.465643 -2.909266 -1.347408
      ESP Fit Center  369 is at   3.503276 -3.035257 -1.347408
      ESP Fit Center  370 is at   4.480605 -2.664605 -1.347408
      ESP Fit Center  371 is at   5.173736 -1.882222 -1.347408
      ESP Fit Center  372 is at   4.991346 -0.867342 -2.245579
      ESP Fit Center  373 is at   4.656877  0.162048 -2.245579
      ESP Fit Center  374 is at   3.781225  0.798246 -2.245579
      ESP Fit Center  375 is at   1.823210 -1.896731 -2.245579
      ESP Fit Center  376 is at   2.698861 -2.532929 -2.245579
      ESP Fit Center  377 is at   3.781225 -2.532929 -2.245579
      ESP Fit Center  378 is at   4.656877 -1.896731 -2.245579
      ESP Fit Center  379 is at   4.211943 -0.867342 -2.867132
      ESP Fit Center  380 is at   3.725993 -0.025652 -2.867132
      ESP Fit Center  381 is at   2.754093 -1.709031 -2.867132
      ESP Fit Center  382 is at   3.725993 -1.709031 -2.867132
      ESP Fit Center  383 is at   3.240043 -0.867342 -3.088962
      ESP Fit Center  384 is at  -2.346446  3.325977  2.631820
      ESP Fit Center  385 is at  -1.374547  3.325977  2.409991
      ESP Fit Center  386 is at  -1.860497  4.167667  2.409991
      ESP Fit Center  387 is at  -2.832396  4.167667  2.409991
      ESP Fit Center  388 is at  -3.318346  3.325977  2.409991
      ESP Fit Center  389 is at  -2.832396  2.484287  2.409991
      ESP Fit Center  390 is at  -1.860497  2.484287  2.409991
      ESP Fit Center  391 is at  -0.929613  4.355367  1.788437
      ESP Fit Center  392 is at  -3.763280  4.355367  1.788437
      ESP Fit Center  393 is at  -4.097749  3.325977  1.788437
      ESP Fit Center  394 is at  -4.466827  3.848604  0.890267
      ESP Fit Center  395 is at  -4.466827  2.803350  0.890267
      ESP Fit Center  396 is at  -4.466827  3.848604 -0.106627
      ESP Fit Center  397 is at  -4.466827  2.803350 -0.106627
      ESP Fit Center  398 is at  -3.763280  4.355367 -1.004797
      ESP Fit Center  399 is at  -4.097749  3.325977 -1.004797
      ESP Fit Center  400 is at  -3.763280  2.296587 -1.004797
      ESP Fit Center  401 is at  -2.832396  4.167667 -1.626350
      ESP Fit Center  402 is at  -3.318346  3.325977 -1.626350
      ESP Fit Center  403 is at  -1.555159 -3.289259  2.797608
      ESP Fit Center  404 is at  -0.514260 -3.289259  2.590560
      ESP Fit Center  405 is at  -1.034710 -2.387814  2.590560
      ESP Fit Center  406 is at  -2.075609 -2.387814  2.590560
      ESP Fit Center  407 is at  -2.596058 -3.289259  2.590560
      ESP Fit Center  408 is at  -2.075609 -4.190703  2.590560
      ESP Fit Center  409 is at  -1.034710 -4.190703  2.590560
      ESP Fit Center  410 is at   0.368171 -3.289259  2.000938
      ESP Fit Center  411 is at   0.110494 -2.327593  2.000938
      ESP Fit Center  412 is at  -3.478490 -3.289259  2.000938
      ESP Fit Center  413 is at  -3.220812 -4.250924  2.000938
      ESP Fit Center  414 is at  -2.516824 -4.954912  2.000938
      ESP Fit Center  415 is at  -1.555159 -5.212589  2.000938
      ESP Fit Center  416 is at  -0.593494 -4.954912  2.000938
      ESP Fit Center  417 is at   0.110494 -4.250924  2.000938
      ESP Fit Center  418 is at   0.957793 -3.289259  1.118507
      ESP Fit Center  419 is at  -4.013197 -3.811731  1.118507
      ESP Fit Center  420 is at  -3.588180 -4.766335  1.118507
      ESP Fit Center  421 is at  -2.811635 -5.465539  1.118507
      ESP Fit Center  422 is at  -1.817834 -5.788445  1.118507
      ESP Fit Center  423 is at  -0.778614 -5.679218  1.118507
      ESP Fit Center  424 is at   0.126334 -5.156746  1.118507
      ESP Fit Center  425 is at   0.740537 -4.311368  1.118507
      ESP Fit Center  426 is at   1.164841 -3.289259  0.077608
      ESP Fit Center  427 is at  -4.228846 -3.789057  0.077608
      ESP Fit Center  428 is at  -3.867750 -4.721154  0.077608
      ESP Fit Center  429 is at  -3.194325 -5.459865  0.077608
      ESP Fit Center  430 is at  -2.299523 -5.905424  0.077608
      ESP Fit Center  431 is at  -1.304189 -5.997655  0.077608
      ESP Fit Center  432 is at  -0.342751 -5.724103  0.077608
      ESP Fit Center  433 is at   0.454945 -5.121711  0.077608
      ESP Fit Center  434 is at   0.981165 -4.271836  0.077608
      ESP Fit Center  435 is at  -4.013197 -2.766786 -0.963291
      ESP Fit Center  436 is at  -4.013197 -3.811731 -0.963291
      ESP Fit Center  437 is at  -3.588180 -4.766335 -0.963291
      ESP Fit Center  438 is at  -2.811635 -5.465539 -0.963291
      ESP Fit Center  439 is at  -1.817834 -5.788445 -0.963291
      ESP Fit Center  440 is at  -0.778614 -5.679218 -0.963291
      ESP Fit Center  441 is at   0.126334 -5.156746 -0.963291
      ESP Fit Center  442 is at   0.740537 -4.311368 -0.963291
      ESP Fit Center  443 is at   0.368171 -3.289259 -1.845723
      ESP Fit Center  444 is at  -3.220812 -2.327593 -1.845723
      ESP Fit Center  445 is at  -3.478490 -3.289259 -1.845723
      ESP Fit Center  446 is at  -3.220812 -4.250924 -1.845723
      ESP Fit Center  447 is at  -2.516824 -4.954912 -1.845723
      ESP Fit Center  448 is at  -1.555159 -5.212589 -1.845723
      ESP Fit Center  449 is at  -0.593494 -4.954912 -1.845723
      ESP Fit Center  450 is at   0.110494 -4.250924 -1.845723
      ESP Fit Center  451 is at  -0.514260 -3.289259 -2.435345
      ESP Fit Center  452 is at  -1.034710 -2.387814 -2.435345
      ESP Fit Center  453 is at  -2.075609 -2.387814 -2.435345
      ESP Fit Center  454 is at  -2.596058 -3.289259 -2.435345
      ESP Fit Center  455 is at  -2.075609 -4.190703 -2.435345
      ESP Fit Center  456 is at  -1.034710 -4.190703 -2.435345
      ESP Fit Center  457 is at  -1.555159 -3.289259 -2.642392
      ESP Fit Center  458 is at  -3.263803  1.250685  2.531568
      ESP Fit Center  459 is at  -2.783803  2.082070  2.274336
      ESP Fit Center  460 is at  -3.743803  2.082070  2.274336
      ESP Fit Center  461 is at  -4.223803  1.250685  2.274336
      ESP Fit Center  462 is at  -4.609011  2.228036  1.571568
      ESP Fit Center  463 is at  -4.926571  1.250685  1.571568
      ESP Fit Center  464 is at  -4.609011  0.273335  1.571568
      ESP Fit Center  465 is at  -4.926571  2.210685  0.611568
      ESP Fit Center  466 is at  -5.183803  1.250685  0.611568
[...]
  565 Fit       0.014534
  566 Fit       0.030717
  567 Fit       0.023099
  568 Fit       0.011808
  569 Fit       0.023168
  570 Fit       0.031564
  571 Fit       0.027704
  572 Fit       0.032810
  573 Fit       0.030418
  574 Fit       0.036976
  575 Fit       0.032247
  576 Fit       0.032760
  577 Fit       0.032915
  578 Fit       0.031977
  579 Fit       0.039635
  580 Fit       0.027512
  581 Fit       0.026926
  582 Fit       0.026644
  583 Fit       0.018351
  584 Fit       0.006558
  585 Fit       0.002254
  586 Fit       0.022783
  587 Fit       0.022441
  588 Fit       0.019449
  589 Fit       0.012957
  590 Fit       0.010701
  591 Fit       0.017401
  592 Fit       0.017487
  593 Fit       0.037571
  594 Fit       0.042052
  595 Fit       0.039427
  596 Fit       0.031228
  597 Fit       0.027219
  598 Fit       0.039909
  599 Fit       0.042286
  600 Fit       0.038667
  601 Fit       0.023433
  602 Fit       0.029636
  603 Fit       0.037765
  604 Fit       0.020783
  605 Fit       0.016035
  606 Fit       0.034351
  607 Fit       0.035495
  608 Fit       0.031125
  609 Fit       0.019488
  610 Fit       0.042663
  611 Fit       0.042637
  612 Fit       0.040170
  613 Fit       0.033657
  614 Fit       0.021365
  615 Fit       0.044427
  616 Fit       0.042731
  617 Fit       0.037243
  618 Fit       0.025530
  619 Fit       0.039022
  620 Fit       0.030962
  621 Fit      -0.009231
  622 Fit      -0.009952
  623 Fit      -0.009783
  624 Fit      -0.009186
  625 Fit      -0.004435
  626 Fit      -0.002234
  627 Fit      -0.008742
  628 Fit      -0.007778
  629 Fit      -0.009780
  630 Fit      -0.011642
  631 Fit      -0.008578
  632 Fit      -0.012227
  633 Fit      -0.002252
  634 Fit      -0.005703
  635 Fit      -0.011416
  636 Fit      -0.009127
  637 Fit      -0.008867
  638 Fit      -0.014131
  639 Fit      -0.003871
  640 Fit      -0.005735
  641 Fit      -0.014487
  642 Fit      -0.014970
  643 Fit      -0.012573
  644 Fit      -0.009817
  645 Fit       0.003763
  646 Fit      -0.005297
  647 Fit      -0.016314
  648 Fit       0.006515
  649 Fit      -0.006240
  650 Fit      -0.012415
  651 Fit      -0.017137
  652 Fit       0.001745
  653 Fit       0.003817
  654 Fit      -0.010873
  655 Fit       0.014218
  656 Fit       0.012518
  657 Fit       0.015579
  658 Fit       0.010987
  659 Fit       0.022241
  660 Fit       0.009514
  661 Fit       0.012634
  662 Fit       0.013127
  663 Fit       0.011277
  664 Fit       0.012905
  665 Fit       0.004093
  666 Fit       0.008398
  667 Fit       0.011603
  668 Fit       0.006431
  669 Fit       0.034096
  670 Fit       0.029040
  671 Fit      -0.002494
  672 Fit       0.018156
  673 Fit       0.000986
  674 Fit       0.025340
  675 Fit       0.011728
  676 Fit       0.016885
  677 Fit       0.027199
  678 Fit       0.005032
  679 Fit       0.014233
  680 Fit      -0.002088
  681 Fit      -0.019181
  682 Fit      -0.031404
  683 Fit      -0.033646
  684 Fit      -0.031314
  685 Fit      -0.022926
  686 Fit      -0.024063
  687 Fit      -0.013540
  688 Fit      -0.036495
  689 Fit      -0.039427
  690 Fit      -0.038459
  691 Fit      -0.033367
  692 Fit      -0.032127
  693 Fit      -0.024139
  694 Fit      -0.016255
  695 Fit      -0.031180
  696 Fit      -0.038639
  697 Fit      -0.040422
  698 Fit      -0.038156
  699 Fit      -0.034127
  700 Fit      -0.025965
  701 Fit      -0.034713
  702 Fit      -0.037996
  703 Fit      -0.031470
  704 Fit      -0.011544
  705 Fit      -0.002104
  706 Fit       0.000769
  707 Fit      -0.004349
  708 Fit      -0.013632
  709 Fit      -0.015715
  710 Fit      -0.011447
  711 Fit       0.004868
  712 Fit      -0.008271
  713 Fit      -0.012262
  714 Fit      -0.000275
  715 Fit      -0.010079
  716 Fit       0.002091
  717 Fit      -0.009657
  718 Fit      -0.001871
  719 Fit      -0.010613
  720 Fit       0.015936
  721 Fit      -0.000604
  722 Fit      -0.014948
  723 Fit      -0.015189
  724 Fit      -0.013583
  725 Fit      -0.012387
  726 Fit      -0.013364
  727 Fit      -0.015354
  728 Fit      -0.016111
  729 Fit      -0.014692
  730 Fit      -0.012318
  731 Fit      -0.010311
  732 Fit      -0.013720
  733 Fit      -0.014200
  734 Fit      -0.014471
  735 Fit      -0.015767
  736 Fit      -0.016517
  737 Fit      -0.014775
  738 Fit      -0.007085
  739 Fit      -0.012517
  740 Fit      -0.013049
  741 Fit      -0.012106
  742 Fit      -0.012146
  743 Fit      -0.013965
  744 Fit      -0.016447
  745 Fit      -0.017346
  746 Fit      -0.017229
  747 Fit      -0.007083
  748 Fit      -0.012639
  749 Fit      -0.012991
  750 Fit      -0.011438
  751 Fit      -0.010490
  752 Fit      -0.011549
  753 Fit      -0.014462
  754 Fit      -0.017744
  755 Fit      -0.019386
  756 Fit      -0.010664
  757 Fit      -0.014151
  758 Fit      -0.013969
  759 Fit      -0.012265
  760 Fit      -0.011283
  761 Fit      -0.012368
  762 Fit      -0.015390
  763 Fit      -0.018979
  764 Fit      -0.021295
  765 Fit      -0.012099
  766 Fit      -0.014491
  767 Fit      -0.016162
  768 Fit      -0.015602
  769 Fit      -0.014356
  770 Fit      -0.014366
  771 Fit      -0.016355
  772 Fit      -0.019368
  773 Fit      -0.021318
  774 Fit      -0.018233
  775 Fit      -0.016098
  776 Fit      -0.017061
  777 Fit      -0.017922
  778 Fit      -0.017560
  779 Fit      -0.017679
  780 Fit      -0.019208
  781 Fit      -0.020527
  782 Fit      -0.018781
  783 Fit      -0.017127
  784 Fit      -0.017528
  785 Fit      -0.018417
  786 Fit      -0.019252
  787 Fit      -0.019840
  788 Fit      -0.018899
  789 Fit      -0.009047
  790 Fit      -0.000474
  791 Fit      -0.009571
  792 Fit       0.000535
  793 Fit       0.004791
  794 Fit      -0.008019
  795 Fit       0.000652
  796 Fit       0.004271
  797 Fit      -0.002771
  798 Fit      -0.000473
  799 Fit       0.003202
  800 Fit      -0.000774
  801 Fit       0.006403
  802 Fit       0.005017
  803 Fit       0.000670
  804 Fit       0.005848
  805 Fit       0.004437
  806 Fit       0.000496
  807 Fit       0.001399
  808 Fit       0.000324
  809 Fit      -0.004907
  810 Fit      -0.023507
  811 Fit      -0.020399
  812 Fit      -0.017780
  813 Fit       0.016722
  814 Fit       0.014774
  815 Fit       0.018460
  816 Fit       0.022231
  817 Fit       0.019861
  818 Fit       0.015803
  819 Fit       0.019969
  820 Fit       0.026118
  821 Fit       0.033705
  822 Fit       0.017532
  823 Fit       0.023734
  824 Fit       0.012061
  825 Fit       0.011199
  826 Fit       0.011978
  827 Fit       0.009677
  828 Fit       0.009742
  829 Fit       0.008119
  830 Fit       0.005714
  831 Fit       0.005571
  832 Fit       0.006208
  833 Fit       0.007416
  834 Fit      -0.000528
  835 Fit      -0.002075
  836 Fit      -0.001290
  837 Fit       0.000506
  838 Fit      -0.018162
  839 Fit      -0.013433
  840 Fit       0.009799
  841 Fit       0.011742
  842 Fit       0.007193
  843 Fit       0.008221
  844 Fit       0.010206
  845 Fit       0.011667
  846 Fit      -0.000325
  847 Fit       0.004804
  848 Fit       0.004217
  849 Fit       0.007133
  850 Fit       0.008866
  851 Fit      -0.013048
  852 Fit      -0.001690
  853 Fit      -0.004673
  854 Fit       0.000258
  855 Fit      -0.002453
  856 Fit      -0.014925
  857 Fit      -0.006931
  858 Fit       0.003396
  859 Fit       0.007513
  860 Fit       0.002771
  861 Fit      -0.004128
  862 Fit      -0.011522
  863 Fit       0.000160
  864 Fit       0.029324
  865 Fit       0.019626
  866 Fit       0.026615
  867 Fit       0.011235
  868 Fit       0.018347
  869 Fit       0.024409
  870 Fit       0.014100
  871 Fit       0.018572
  872 Fit       0.012813
  873 Fit       0.029123
  874 Fit       0.021161
  875 Fit       0.021410
  876 Fit       0.030010
  877 Fit       0.025707
  878 Fit       0.027194
  879 Fit       0.030451
  880 Fit       0.027952
  881 Fit       0.032082
  882 Fit       0.029712
  883 Fit       0.029393
  884 Fit       0.034976
  885 Fit       0.025038
  886 Fit       0.024314
  887 Fit       0.024767
  888 Fit       0.020455
  889 Fit       0.009291
  890 Fit       0.001910
  891 Fit       0.019714
  892 Fit       0.019692
  893 Fit       0.016966
  894 Fit       0.010650
  895 Fit       0.008040
  896 Fit       0.014343
  897 Fit       0.014755
  898 Fit       0.031646
  899 Fit       0.035999
  900 Fit       0.033197
  901 Fit       0.025313
  902 Fit       0.022212
  903 Fit       0.034108
  904 Fit       0.036187
  905 Fit       0.025323
  906 Fit       0.031703
  907 Fit       0.017684
  908 Fit       0.013007
  909 Fit       0.029739
  910 Fit       0.030170
  911 Fit       0.027362
  912 Fit       0.020065
  913 Fit       0.036451
  914 Fit       0.034475
  915 Fit       0.030002
  916 Fit       0.021916
  917 Fit       0.008700
  918 Fit       0.036712
  919 Fit       0.032858
  920 Fit       0.025315
  921 Fit       0.012340
  922 Fit       0.033384
  923 Fit       0.025957
  924 Fit      -0.007300
  925 Fit      -0.007253
  926 Fit      -0.007319
  927 Fit      -0.007477
  928 Fit      -0.004337
  929 Fit      -0.004114
  930 Fit      -0.004356
  931 Fit      -0.005897
  932 Fit      -0.006951
  933 Fit      -0.009140
  934 Fit      -0.009656
  935 Fit      -0.007206
  936 Fit      -0.009621
  937 Fit      -0.002942
  938 Fit      -0.005764
  939 Fit      -0.009802
  940 Fit      -0.003713
  941 Fit      -0.003894
  942 Fit      -0.007370
  943 Fit      -0.008905
  944 Fit      -0.009333
  945 Fit      -0.012631
  946 Fit      -0.002054
  947 Fit      -0.004113
  948 Fit      -0.014424
  949 Fit      -0.012202
  950 Fit      -0.013597
  951 Fit      -0.012398
  952 Fit      -0.008927
  953 Fit       0.004172
  954 Fit      -0.004087
  955 Fit      -0.003630
  956 Fit      -0.012861
  957 Fit       0.005327
  958 Fit      -0.004570
  959 Fit      -0.010290
  960 Fit      -0.015291
  961 Fit      -0.004435
  962 Fit      -0.003529
  963 Fit       0.000593
  964 Fit       0.012749
  965 Fit       0.011416
  966 Fit       0.013762
  967 Fit       0.010085
  968 Fit       0.018396
  969 Fit       0.011725
  970 Fit       0.008719
  971 Fit       0.009414
  972 Fit       0.011333
  973 Fit       0.009405
  974 Fit       0.007292
  975 Fit       0.012338
  976 Fit       0.002538
  977 Fit       0.012964
  978 Fit      -0.009634
  979 Fit       0.009253
  980 Fit      -0.000259
  981 Fit       0.003190
  982 Fit       0.007640
  983 Fit       0.006559
  984 Fit       0.009081
  985 Fit       0.004593
  986 Fit       0.028757
  987 Fit      -0.000789
  988 Fit       0.002935
  989 Fit       0.015895
  990 Fit       0.019522
  991 Fit       0.026479
  992 Fit       0.008372
  993 Fit       0.012453
  994 Fit       0.020671
  995 Fit       0.004333
  996 Fit      -0.001975
  997 Fit      -0.024034
  998 Fit      -0.023718
  999 Fit      -0.020251
 1000 Fit      -0.028898
 1001 Fit      -0.031071
 1002 Fit      -0.030614
 1003 Fit      -0.027651
 1004 Fit      -0.021392
 1005 Fit      -0.022354
 1006 Fit      -0.015313
 1007 Fit      -0.032733
 1008 Fit      -0.033891
 1009 Fit      -0.032550
 1010 Fit      -0.028616
 1011 Fit      -0.027051
 1012 Fit      -0.021370
 1013 Fit      -0.015366
 1014 Fit      -0.029413
 1015 Fit      -0.033155
 1016 Fit      -0.033634
 1017 Fit      -0.031477
 1018 Fit      -0.027985
 1019 Fit      -0.021221
 1020 Fit      -0.028539
 1021 Fit      -0.031247
 1022 Fit      -0.025556
 1023 Fit      -0.007405
 1024 Fit      -0.000384
 1025 Fit       0.001507
 1026 Fit      -0.002738
 1027 Fit      -0.009490
 1028 Fit      -0.011450
 1029 Fit      -0.008023
 1030 Fit       0.014289
 1031 Fit       0.006177
 1032 Fit      -0.002760
 1033 Fit      -0.008611
 1034 Fit       0.004325
 1035 Fit      -0.004914
 1036 Fit       0.005589
 1037 Fit      -0.004039
 1038 Fit      -0.006741
 1039 Fit      -0.002605
 1040 Fit      -0.007576
 1041 Fit       0.005889
 1042 Fit      -0.003735
 1043 Fit      -0.007640
 1044 Fit       0.002140
 1045 Fit      -0.012178
 1046 Fit      -0.012258
 1047 Fit      -0.011188
 1048 Fit      -0.010498
 1049 Fit      -0.011054
 1050 Fit      -0.012659
 1051 Fit      -0.013196
 1052 Fit      -0.011706
 1053 Fit      -0.009832
 1054 Fit      -0.008775
 1055 Fit      -0.011406
 1056 Fit      -0.012247
 1057 Fit      -0.012680
 1058 Fit      -0.013400
 1059 Fit      -0.013454
 1060 Fit      -0.011526
 1061 Fit      -0.007861
 1062 Fit      -0.005991
 1063 Fit      -0.010300
 1064 Fit      -0.011366
 1065 Fit      -0.011248
 1066 Fit      -0.011509
 1067 Fit      -0.012667
 1068 Fit      -0.014018
 1069 Fit      -0.014078
 1070 Fit      -0.014182
 1071 Fit      -0.008041
 1072 Fit      -0.010832
 1073 Fit      -0.010991
 1074 Fit      -0.010379
 1075 Fit      -0.010329
 1076 Fit      -0.011435
 1077 Fit      -0.013426
 1078 Fit      -0.015372
 1079 Fit      -0.016087
 1080 Fit      -0.009154
 1081 Fit      -0.011411
 1082 Fit      -0.011481
 1083 Fit      -0.010699
 1084 Fit      -0.010209
 1085 Fit      -0.010739
 1086 Fit      -0.012420
 1087 Fit      -0.014830
 1088 Fit      -0.017299
 1089 Fit      -0.019353
 1090 Fit      -0.008280
 1091 Fit      -0.011496
 1092 Fit      -0.012760
 1093 Fit      -0.012421
 1094 Fit      -0.011657
 1095 Fit      -0.011606
 1096 Fit      -0.012839
 1097 Fit      -0.015180
 1098 Fit      -0.017994
 1099 Fit      -0.020774
 1100 Fit      -0.011882
 1101 Fit      -0.012935
 1102 Fit      -0.014092
 1103 Fit      -0.014079
 1104 Fit      -0.013642
 1105 Fit      -0.013931
 1106 Fit      -0.015439
 1107 Fit      -0.017720
 1108 Fit      -0.019781
 1109 Fit      -0.017498
 1110 Fit      -0.014432
 1111 Fit      -0.014816
 1112 Fit      -0.015477
 1113 Fit      -0.015580
 1114 Fit      -0.015964
 1115 Fit      -0.017173
 1116 Fit      -0.018354
 1117 Fit      -0.016804
 1118 Fit      -0.015473
 1119 Fit      -0.015485
 1120 Fit      -0.015885
 1121 Fit      -0.016591
 1122 Fit      -0.017262
 1123 Fit      -0.016437
 1124 Fit      -0.007706
 1125 Fit      -0.001614
 1126 Fit      -0.007901
 1127 Fit      -0.000521
 1128 Fit       0.002904
 1129 Fit      -0.001831
 1130 Fit       0.002229
 1131 Fit       0.005542
 1132 Fit      -0.002947
 1133 Fit       0.000675
 1134 Fit      -0.003854
 1135 Fit       0.001244
 1136 Fit      -0.002065
 1137 Fit       0.004201
 1138 Fit       0.002937
 1139 Fit      -0.000784
 1140 Fit       0.005236
 1141 Fit       0.004232
 1142 Fit       0.002133
 1143 Fit      -0.002508
 1144 Fit       0.003246
 1145 Fit       0.002445
 1146 Fit       0.000266
 1147 Fit      -0.002448
 1148 Fit      -0.023372
 1149 Fit      -0.027282
 1150 Fit      -0.020599
 1151 Fit      -0.017581
 1152 Fit       0.015017
 1153 Fit       0.013508
 1154 Fit       0.016383
 1155 Fit       0.019133
 1156 Fit       0.017263
 1157 Fit       0.014479
 1158 Fit       0.017847
 1159 Fit       0.022421
 1160 Fit       0.026866
 1161 Fit       0.025475
 1162 Fit       0.013236
 1163 Fit       0.015864
 1164 Fit       0.020332
 1165 Fit       0.027919
 1166 Fit       0.014714
 1167 Fit       0.019262
 1168 Fit       0.010704
 1169 Fit       0.010154
 1170 Fit       0.010559
 1171 Fit       0.008279
 1172 Fit       0.008470
 1173 Fit       0.007071
 1174 Fit       0.004981
 1175 Fit       0.004943
 1176 Fit       0.005686
 1177 Fit       0.006987
 1178 Fit       0.001523
 1179 Fit      -0.000438
 1180 Fit      -0.000274
 1181 Fit       0.000776
 1182 Fit       0.002345
 1183 Fit      -0.008862
 1184 Fit      -0.009315
 1185 Fit      -0.007360
 1186 Fit      -0.004211
 1187 Fit       0.008876
 1188 Fit       0.006843
 1189 Fit       0.007542
 1190 Fit       0.009392
 1191 Fit       0.011214
 1192 Fit       0.001764
 1193 Fit       0.005010
 1194 Fit       0.005233
 1195 Fit       0.007440
 1196 Fit       0.009101
 1197 Fit      -0.003653
 1198 Fit       0.001741
 1199 Fit       0.000699
 1200 Fit       0.003929
 1201 Fit       0.005832
 1202 Fit      -0.017940
 1203 Fit      -0.005524
 1204 Fit      -0.008152
 1205 Fit      -0.015832
 1206 Fit      -0.002481
 1207 Fit      -0.013941
 1208 Fit      -0.006402
 1209 Fit       0.002073
 1210 Fit       0.005429
 1211 Fit       0.001283
 1212 Fit      -0.004799
 1213 Fit      -0.010211
 1214 Fit      -0.001034
 1215 Fit       0.019307
 1216 Fit       0.025799
 1217 Fit       0.015466
 1218 Fit       0.021300
 1219 Fit       0.009632
 1220 Fit       0.015488
 1221 Fit       0.020442
 1222 Fit       0.011935
 1223 Fit       0.015361
 1224 Fit       0.011562
 1225 Fit       0.025118
 1226 Fit       0.018668
 1227 Fit       0.018341
 1228 Fit       0.027301
 1229 Fit       0.022698
 1230 Fit       0.021657
 1231 Fit       0.029673
 1232 Fit       0.025587
 1233 Fit       0.026794
 1234 Fit       0.027179
 1235 Fit       0.026051
 1236 Fit       0.024839
 1237 Fit       0.026758
 1238 Fit       0.021163
 1239 Fit       0.020745
 1240 Fit       0.020404
 1241 Fit       0.016704
 1242 Fit       0.008996
 1243 Fit       0.002911
 1244 Fit       0.016371
 1245 Fit       0.016838
 1246 Fit       0.014557
 1247 Fit       0.009473
 1248 Fit       0.007165
 1249 Fit       0.011828
 1250 Fit       0.012625
 1251 Fit       0.027067
 1252 Fit       0.031025
 1253 Fit       0.028154
 1254 Fit       0.021805
 1255 Fit       0.019830
 1256 Fit       0.030747
 1257 Fit       0.031299
 1258 Fit       0.025971
 1259 Fit       0.029047
 1260 Fit       0.013434
 1261 Fit       0.023603
 1262 Fit       0.023739
 1263 Fit       0.021167
 1264 Fit       0.014964
 1265 Fit       0.030214
 1266 Fit       0.028681
 1267 Fit       0.025547
 1268 Fit       0.020028
 1269 Fit       0.011336
 1270 Fit       0.032783
 1271 Fit       0.030840
 1272 Fit       0.027485
 1273 Fit       0.021898
 1274 Fit       0.013261
 1275 Fit       0.031252
 1276 Fit       0.027581
 1277 Fit       0.021180
 1278 Fit       0.010963
 1279 Fit       0.021887
 -----------------------------------------------------------------
 Leave Link  602 at Sat Feb 17 21:06:50 2018, MaxMem=   33554432 cpu:       0.5

 Test job not archived.
 1\1\GINC-NODE016\SP\RHF\6-31G(d)\C10H12Cl1N1O2\WULSDORT\17-Feb-2018\0\
 \#HF/6-31G* Geom=AllCheck Guess=Read Pop=(MK,ReadRadii) Integral=(Grid
 =UltraFine) iop(6/33=2)\\Optimization for frag51-conf2\\0,1\C,0,1.5824
 035208,-2.0662961415,-0.1325780271\C,0,0.7418936402,-1.0455434868,0.30
 75397332\C,0,2.2908269163,-0.5812560494,2.1118728957\C,0,2.7804531613,
 -2.3568869386,0.5289053625\C,0,3.1360052687,-1.6051739038,1.6644826088
 \C,0,1.1080030994,-0.3098606111,1.4319496607\C,0,5.6420702048,0.232009
 4168,3.0303012079\C,0,6.6558762229,1.2670399771,2.5673044332\C,0,4.429
 3965595,-1.8403611083,2.4318150699\C,0,3.6643536973,-3.4836936157,0.02
 53226246\N,0,5.449637359,-0.8250036303,2.1782819901\O,0,5.048653908,0.
 3381910991,4.0974084545\O,0,3.1512663971,-3.982036537,-1.2005041198\Cl
 ,0,0.0556008364,0.9801828377,2.0056520419\H,0,1.3127025129,-2.64847011
 19,-1.0056997861\H,0,-0.1844396391,-0.8262941741,-0.2128041867\H,0,2.5
 678957587,-0.0031735032,2.987935089\H,0,7.2089880392,0.9732982898,1.66
 95789806\H,0,6.1339693298,2.2091901866,2.369163846\H,0,7.3639252368,1.
 4506829113,3.3800707914\H,0,4.2367305597,-1.797132151,3.5061771264\H,0
 ,4.854291872,-2.8241916311,2.2121776094\H,0,4.697172594,-3.1189798555,
 -0.1076520702\H,0,3.7087877169,-4.2848159172,0.7825546682\H,0,5.855637
 1373,-0.7782738383,1.2541554231\H,0,3.6788953222,-4.7548282662,-1.4491
 70684\\Version=AM64L-G09RevC.01\State=1-A\HF=-1049.327107\RMSD=3.517e-
 09\Dipole=1.6065658,-1.2183765,-1.3858933\Quadrupole=3.8114328,5.11892
 02,-8.930353,-0.2658098,-3.7809152,-0.4153015\PG=C01 [X(C10H12Cl1N1O2)
 ]\\@


 The impersonal hand of government can
 never replace the helping hand of a neighbor.
                        -- Hubert H. Humphrey
 Job cpu time:  0 days  0 hours  3 minutes  0.4 seconds.
 File lengths (MBytes):  RWF=     34 Int=      0 D2E=      0 Chk=      5 Scr=      1
 Normal termination of Gaussian 09 at Sat Feb 17 21:06:50 2018.
