 Entering Gaussian System, Link 0=g09
 Initial command:
 /home/fb_chem/chemsoft/lx24-amd64/Gaussian_09_C.01_NBO_3.1_64_istanbul-64/g09/l1.exe /local/2397387.1.parallel/Gau-16629.inp -scrdir=/local/2397387.1.parallel/
 Entering Link 1 = /home/fb_chem/chemsoft/lx24-amd64/Gaussian_09_C.01_NBO_3.1_64_istanbul-64/g09/l1.exe PID=     16630.
  
 Copyright (c) 1988,1990,1992,1993,1995,1998,2003,2009,2011,
            Gaussian, Inc.  All Rights Reserved.
  
 This is part of the Gaussian(R) 09 program.  It is based on
 the Gaussian(R) 03 system (copyright 2003, Gaussian, Inc.),
 the Gaussian(R) 98 system (copyright 1998, Gaussian, Inc.),
 the Gaussian(R) 94 system (copyright 1995, Gaussian, Inc.),
 the Gaussian 92(TM) system (copyright 1992, Gaussian, Inc.),
 the Gaussian 90(TM) system (copyright 1990, Gaussian, Inc.),
 the Gaussian 88(TM) system (copyright 1988, Gaussian, Inc.),
 the Gaussian 86(TM) system (copyright 1986, Carnegie Mellon
 University), and the Gaussian 82(TM) system (copyright 1983,
 Carnegie Mellon University). Gaussian is a federally registered
 trademark of Gaussian, Inc.
  
 This software contains proprietary and confidential information,
 including trade secrets, belonging to Gaussian, Inc.
  
 This software is provided under written license and may be
 used, copied, transmitted, or stored only in accord with that
 written license.
  
 The following legend is applicable only to US Government
 contracts under FAR:
  
                    RESTRICTED RIGHTS LEGEND
  
 Use, reproduction and disclosure by the US Government is
 subject to restrictions as set forth in subparagraphs (a)
 and (c) of the Commercial Computer Software - Restricted
 Rights clause in FAR 52.227-19.
  
 Gaussian, Inc.
 340 Quinnipiac St., Bldg. 40, Wallingford CT 06492
  
  
 ---------------------------------------------------------------
 Warning -- This program may not be used in any manner that
 competes with the business of Gaussian, Inc. or will provide
 assistance to any competitor of Gaussian, Inc.  The licensee
 of this program is prohibited from giving any competitor of
 Gaussian, Inc. access to this program.  By using this program,
 the user acknowledges that Gaussian, Inc. is engaged in the
 business of creating and licensing software in the field of
 computational chemistry and represents and warrants to the
 licensee that it is not a competitor of Gaussian, Inc. and that
 it will not use this program in any manner prohibited above.
 ---------------------------------------------------------------
  

 Cite this work as:
 Gaussian 09, Revision C.01,
 M. J. Frisch, G. W. Trucks, H. B. Schlegel, G. E. Scuseria, 
 M. A. Robb, J. R. Cheeseman, G. Scalmani, V. Barone, B. Mennucci, 
 G. A. Petersson, H. Nakatsuji, M. Caricato, X. Li, H. P. Hratchian, 
 A. F. Izmaylov, J. Bloino, G. Zheng, J. L. Sonnenberg, M. Hada, 
 M. Ehara, K. Toyota, R. Fukuda, J. Hasegawa, M. Ishida, T. Nakajima, 
 Y. Honda, O. Kitao, H. Nakai, T. Vreven, J. A. Montgomery, Jr., 
 J. E. Peralta, F. Ogliaro, M. Bearpark, J. J. Heyd, E. Brothers, 
 K. N. Kudin, V. N. Staroverov, T. Keith, R. Kobayashi, J. Normand, 
 K. Raghavachari, A. Rendell, J. C. Burant, S. S. Iyengar, J. Tomasi, 
 M. Cossi, N. Rega, J. M. Millam, M. Klene, J. E. Knox, J. B. Cross, 
 V. Bakken, C. Adamo, J. Jaramillo, R. Gomperts, R. E. Stratmann, 
 O. Yazyev, A. J. Austin, R. Cammi, C. Pomelli, J. W. Ochterski, 
 R. L. Martin, K. Morokuma, V. G. Zakrzewski, G. A. Voth, 
 P. Salvador, J. J. Dannenberg, S. Dapprich, A. D. Daniels, 
 O. Farkas, J. B. Foresman, J. V. Ortiz, J. Cioslowski, 
 and D. J. Fox, Gaussian, Inc., Wallingford CT, 2010.
 
 ******************************************
 Gaussian 09:  AM64L-G09RevC.01 23-Sep-2011
                16-Feb-2018 
 ******************************************
 %nprocs=4
 Will use up to    4 processors via shared memory.
 %chk=frag33-conf0.chk
 ---------------------------------------------------------
 #B3LYP/6-31G* Integral=(Grid=UltraFine) freq Opt pop=none
 ---------------------------------------------------------
 1/14=-1,18=20,19=15,26=3,38=1/1,3;
 2/9=110,12=2,17=6,18=5,40=1/2;
 3/5=1,6=6,7=1,11=2,16=1,25=1,30=1,71=1,74=-5,75=-5/1,2,3;
 4//1;
 5/5=2,38=5/2;
 7//1,2,3,16;
 1/14=-1,18=20,19=15/3(2);
 2/9=110/2;
 99//99;
 2/9=110/2;
 3/5=1,6=6,7=1,11=2,16=1,25=1,30=1,71=1,74=-5,75=-5/1,2,3;
 4/5=5,16=3/1;
 5/5=2,38=5/2;
 7//1,2,3,16;
 1/14=-1,18=20,19=15/3(-5);
 2/9=110/2;
 99/9=1/99;
 -----------------------------
 Optimization for frag33-conf0
 -----------------------------
 Charge =  0 Multiplicity = 1
 Symbolic Z-Matrix:
 C                    -1.33416  -2.22187   4.615 
 C                     2.42872  -0.56042   5.88112 
 C                     1.16947  -2.56577   6.71559 
 C                    -3.71589  -2.46013   5.2096 
 C                    -2.82421  -0.19093   4.82537 
 C                    -0.83677   0.75452   0.69928 
 C                     1.20257  -2.03821   4.20283 
 C                    -0.15594  -1.30989   4.16854 
 C                     1.9594   -1.97865   5.54822 
 N                    -0.49449  -0.93868   2.74955 
 N                    -2.5587   -1.62228   4.92217 
 O                    -1.21109  -3.45317   4.6538 
 O                     1.49074   0.37487   1.89218 
 O                    -0.33871   1.5571    3.16086 
 S                     0.08571   0.54928   2.2062 
 H                     1.59218   0.10596   6.11208 
 H                     3.0906   -0.57194   6.75402 
 H                     2.98932  -0.1283    5.04562 
 H                     0.28427  -1.96673   6.95097 
 H                     0.84913  -3.58881   6.49469 
 H                     1.79013  -2.60302   7.61762 
 H                    -4.15165  -2.14541   6.16247 
 H                    -3.45691  -3.51947   5.2762 
 H                    -4.45006  -2.32602   4.40952 
 H                    -3.1215    0.03721   3.798 
 H                    -1.95176   0.40284   5.09454 
 H                    -3.63663   0.07879   5.50704 
 H                    -0.54127   1.70534   0.25073 
 H                    -0.59584  -0.06706   0.02236 
 H                    -1.90202   0.77005   0.93684 
 H                     1.07873  -3.09109   3.91919 
 H                     1.87091  -1.62023   3.44094 
 H                    -0.12858  -0.42379   4.80171 
 H                     2.8621   -2.59248   5.42596 
 H                    -0.24292  -1.69549   2.10123 
 

 GradGradGradGradGradGradGradGradGradGradGradGradGradGradGradGradGradGrad
 Berny optimization.
 Initialization pass.
                           ----------------------------
                           !    Initial Parameters    !
                           ! (Angstroms and Degrees)  !
 --------------------------                            --------------------------
 ! Name  Definition              Value          Derivative Info.                !
 --------------------------------------------------------------------------------
 ! R1    R(1,8)                  1.5554         estimate D2E/DX2                !
 ! R2    R(1,11)                 1.3976         estimate D2E/DX2                !
 ! R3    R(1,12)                 1.238          estimate D2E/DX2                !
 ! R4    R(2,9)                  1.5305         estimate D2E/DX2                !
 ! R5    R(2,16)                 1.0942         estimate D2E/DX2                !
 ! R6    R(2,17)                 1.0955         estimate D2E/DX2                !
 ! R7    R(2,18)                 1.095          estimate D2E/DX2                !
 ! R8    R(3,9)                  1.5269         estimate D2E/DX2                !
 ! R9    R(3,19)                 1.0945         estimate D2E/DX2                !
 ! R10   R(3,20)                 1.0946         estimate D2E/DX2                !
 ! R11   R(3,21)                 1.0956         estimate D2E/DX2                !
 ! R12   R(4,11)                 1.4573         estimate D2E/DX2                !
 ! R13   R(4,22)                 1.094          estimate D2E/DX2                !
 ! R14   R(4,23)                 1.0926         estimate D2E/DX2                !
 ! R15   R(4,24)                 1.0941         estimate D2E/DX2                !
 ! R16   R(5,11)                 1.459          estimate D2E/DX2                !
 ! R17   R(5,25)                 1.0936         estimate D2E/DX2                !
 ! R18   R(5,26)                 1.0891         estimate D2E/DX2                !
 ! R19   R(5,27)                 1.0943         estimate D2E/DX2                !
 ! R20   R(6,15)                 1.7787         estimate D2E/DX2                !
 ! R21   R(6,28)                 1.092          estimate D2E/DX2                !
 ! R22   R(6,29)                 1.0915         estimate D2E/DX2                !
 ! R23   R(6,30)                 1.0915         estimate D2E/DX2                !
 ! R24   R(7,8)                  1.5418         estimate D2E/DX2                !
 ! R25   R(7,9)                  1.5448         estimate D2E/DX2                !
 ! R26   R(7,31)                 1.0974         estimate D2E/DX2                !
 ! R27   R(7,32)                 1.0963         estimate D2E/DX2                !
 ! R28   R(8,10)                 1.5053         estimate D2E/DX2                !
 ! R29   R(8,33)                 1.0894         estimate D2E/DX2                !
 ! R30   R(9,34)                 1.0985         estimate D2E/DX2                !
 ! R31   R(10,15)                1.687          estimate D2E/DX2                !
 ! R32   R(10,35)                1.0278         estimate D2E/DX2                !
 ! R33   R(13,15)                1.4502         estimate D2E/DX2                !
 ! R34   R(14,15)                1.4516         estimate D2E/DX2                !
 ! A1    A(8,1,11)             118.3754         estimate D2E/DX2                !
 ! A2    A(8,1,12)             121.1202         estimate D2E/DX2                !
 ! A3    A(11,1,12)            120.4557         estimate D2E/DX2                !
 ! A4    A(9,2,16)             112.0751         estimate D2E/DX2                !
 ! A5    A(9,2,17)             110.4155         estimate D2E/DX2                !
 ! A6    A(9,2,18)             110.8975         estimate D2E/DX2                !
 ! A7    A(16,2,17)            107.4654         estimate D2E/DX2                !
 ! A8    A(16,2,18)            108.1885         estimate D2E/DX2                !
 ! A9    A(17,2,18)            107.625          estimate D2E/DX2                !
 ! A10   A(9,3,19)             111.8634         estimate D2E/DX2                !
 ! A11   A(9,3,20)             110.886          estimate D2E/DX2                !
 ! A12   A(9,3,21)             110.4548         estimate D2E/DX2                !
 ! A13   A(19,3,20)            108.5586         estimate D2E/DX2                !
 ! A14   A(19,3,21)            107.4415         estimate D2E/DX2                !
 ! A15   A(20,3,21)            107.469          estimate D2E/DX2                !
 ! A16   A(11,4,22)            108.8254         estimate D2E/DX2                !
 ! A17   A(11,4,23)            112.4112         estimate D2E/DX2                !
 ! A18   A(11,4,24)            108.5501         estimate D2E/DX2                !
 ! A19   A(22,4,23)            108.6772         estimate D2E/DX2                !
 ! A20   A(22,4,24)            109.5339         estimate D2E/DX2                !
 ! A21   A(23,4,24)            108.8126         estimate D2E/DX2                !
 ! A22   A(11,5,25)            108.4501         estimate D2E/DX2                !
 ! A23   A(11,5,26)            111.881          estimate D2E/DX2                !
 ! A24   A(11,5,27)            109.6088         estimate D2E/DX2                !
 ! A25   A(25,5,26)            109.646          estimate D2E/DX2                !
 ! A26   A(25,5,27)            109.389          estimate D2E/DX2                !
 ! A27   A(26,5,27)            107.8412         estimate D2E/DX2                !
 ! A28   A(15,6,28)            107.9448         estimate D2E/DX2                !
 ! A29   A(15,6,29)            108.9104         estimate D2E/DX2                !
 ! A30   A(15,6,30)            108.8678         estimate D2E/DX2                !
 ! A31   A(28,6,29)            109.9335         estimate D2E/DX2                !
 ! A32   A(28,6,30)            109.9429         estimate D2E/DX2                !
 ! A33   A(29,6,30)            111.1689         estimate D2E/DX2                !
 ! A34   A(8,7,9)              115.6473         estimate D2E/DX2                !
 ! A35   A(8,7,31)             110.3668         estimate D2E/DX2                !
 ! A36   A(8,7,32)             109.9745         estimate D2E/DX2                !
 ! A37   A(9,7,31)             108.5039         estimate D2E/DX2                !
 ! A38   A(9,7,32)             106.9706         estimate D2E/DX2                !
 ! A39   A(31,7,32)            104.7716         estimate D2E/DX2                !
 ! A40   A(1,8,7)              112.5876         estimate D2E/DX2                !
 ! A41   A(1,8,10)             104.1704         estimate D2E/DX2                !
 ! A42   A(1,8,33)             109.2141         estimate D2E/DX2                !
 ! A43   A(7,8,10)             109.6101         estimate D2E/DX2                !
 ! A44   A(7,8,33)             110.4369         estimate D2E/DX2                !
 ! A45   A(10,8,33)            110.6671         estimate D2E/DX2                !
 ! A46   A(2,9,3)              110.4049         estimate D2E/DX2                !
 ! A47   A(2,9,7)              112.0481         estimate D2E/DX2                !
 ! A48   A(2,9,34)             106.86           estimate D2E/DX2                !
 ! A49   A(3,9,7)              113.4258         estimate D2E/DX2                !
 ! A50   A(3,9,34)             107.1797         estimate D2E/DX2                !
 ! A51   A(7,9,34)             106.5069         estimate D2E/DX2                !
 ! A52   A(8,10,15)            116.3449         estimate D2E/DX2                !
 ! A53   A(8,10,35)            110.9768         estimate D2E/DX2                !
 ! A54   A(15,10,35)           111.2311         estimate D2E/DX2                !
 ! A55   A(1,11,4)             119.5006         estimate D2E/DX2                !
 ! A56   A(1,11,5)             124.4538         estimate D2E/DX2                !
 ! A57   A(4,11,5)             115.6341         estimate D2E/DX2                !
 ! A58   A(6,15,10)            101.3192         estimate D2E/DX2                !
 ! A59   A(6,15,13)            109.4439         estimate D2E/DX2                !
 ! A60   A(6,15,14)            108.9906         estimate D2E/DX2                !
 ! A61   A(10,15,13)           107.2697         estimate D2E/DX2                !
 ! A62   A(10,15,14)           107.4573         estimate D2E/DX2                !
 ! A63   A(13,15,14)           120.6085         estimate D2E/DX2                !
 ! D1    D(11,1,8,7)           165.7082         estimate D2E/DX2                !
 ! D2    D(11,1,8,10)          -75.6099         estimate D2E/DX2                !
 ! D3    D(11,1,8,33)           42.6508         estimate D2E/DX2                !
 ! D4    D(12,1,8,7)           -16.8191         estimate D2E/DX2                !
 ! D5    D(12,1,8,10)          101.8628         estimate D2E/DX2                !
 ! D6    D(12,1,8,33)         -139.8765         estimate D2E/DX2                !
 ! D7    D(8,1,11,4)           173.7349         estimate D2E/DX2                !
 ! D8    D(8,1,11,5)             1.4304         estimate D2E/DX2                !
 ! D9    D(12,1,11,4)           -3.7552         estimate D2E/DX2                !
 ! D10   D(12,1,11,5)         -176.0597         estimate D2E/DX2                !
 ! D11   D(16,2,9,3)           -58.5037         estimate D2E/DX2                !
 ! D12   D(16,2,9,7)            68.9633         estimate D2E/DX2                !
 ! D13   D(16,2,9,34)         -174.7376         estimate D2E/DX2                !
 ! D14   D(17,2,9,3)            61.2668         estimate D2E/DX2                !
 ! D15   D(17,2,9,7)          -171.2662         estimate D2E/DX2                !
 ! D16   D(17,2,9,34)          -54.9671         estimate D2E/DX2                !
 ! D17   D(18,2,9,3)          -179.5279         estimate D2E/DX2                !
 ! D18   D(18,2,9,7)           -52.0609         estimate D2E/DX2                !
 ! D19   D(18,2,9,34)           64.2382         estimate D2E/DX2                !
 ! D20   D(19,3,9,2)            59.9337         estimate D2E/DX2                !
 ! D21   D(19,3,9,7)           -66.7694         estimate D2E/DX2                !
 ! D22   D(19,3,9,34)          175.9681         estimate D2E/DX2                !
 ! D23   D(20,3,9,2)          -178.7224         estimate D2E/DX2                !
 ! D24   D(20,3,9,7)            54.5744         estimate D2E/DX2                !
 ! D25   D(20,3,9,34)          -62.6881         estimate D2E/DX2                !
 ! D26   D(21,3,9,2)           -59.6937         estimate D2E/DX2                !
 ! D27   D(21,3,9,7)           173.6032         estimate D2E/DX2                !
 ! D28   D(21,3,9,34)           56.3407         estimate D2E/DX2                !
 ! D29   D(22,4,11,1)          127.8008         estimate D2E/DX2                !
 ! D30   D(22,4,11,5)          -59.2341         estimate D2E/DX2                !
 ! D31   D(23,4,11,1)            7.3651         estimate D2E/DX2                !
 ! D32   D(23,4,11,5)         -179.6697         estimate D2E/DX2                !
 ! D33   D(24,4,11,1)         -113.0541         estimate D2E/DX2                !
 ! D34   D(24,4,11,5)           59.911          estimate D2E/DX2                !
 ! D35   D(25,5,11,1)           85.7593         estimate D2E/DX2                !
 ! D36   D(25,5,11,4)          -86.8132         estimate D2E/DX2                !
 ! D37   D(26,5,11,1)          -35.3003         estimate D2E/DX2                !
 ! D38   D(26,5,11,4)          152.1272         estimate D2E/DX2                !
 ! D39   D(27,5,11,1)         -154.8757         estimate D2E/DX2                !
 ! D40   D(27,5,11,4)           32.5518         estimate D2E/DX2                !
 ! D41   D(28,6,15,10)         179.8283         estimate D2E/DX2                !
 ! D42   D(28,6,15,13)         -67.1094         estimate D2E/DX2                !
 ! D43   D(28,6,15,14)          66.7217         estimate D2E/DX2                !
 ! D44   D(29,6,15,10)         -60.8473         estimate D2E/DX2                !
 ! D45   D(29,6,15,13)          52.215          estimate D2E/DX2                !
 ! D46   D(29,6,15,14)        -173.9539         estimate D2E/DX2                !
 ! D47   D(30,6,15,10)          60.5166         estimate D2E/DX2                !
 ! D48   D(30,6,15,13)         173.579          estimate D2E/DX2                !
 ! D49   D(30,6,15,14)         -52.59           estimate D2E/DX2                !
 ! D50   D(9,7,8,1)            -88.4499         estimate D2E/DX2                !
 ! D51   D(9,7,8,10)           156.1023         estimate D2E/DX2                !
 ! D52   D(9,7,8,33)            33.9211         estimate D2E/DX2                !
 ! D53   D(31,7,8,1)            35.1765         estimate D2E/DX2                !
 ! D54   D(31,7,8,10)          -80.2712         estimate D2E/DX2                !
 ! D55   D(31,7,8,33)          157.5476         estimate D2E/DX2                !
 ! D56   D(32,7,8,1)           150.2835         estimate D2E/DX2                !
 ! D57   D(32,7,8,10)           34.8358         estimate D2E/DX2                !
 ! D58   D(32,7,8,33)          -87.3454         estimate D2E/DX2                !
 ! D59   D(8,7,9,2)            -67.0962         estimate D2E/DX2                !
 ! D60   D(8,7,9,3)             58.7371         estimate D2E/DX2                !
 ! D61   D(8,7,9,34)           176.3915         estimate D2E/DX2                !
 ! D62   D(31,7,9,2)           168.3067         estimate D2E/DX2                !
 ! D63   D(31,7,9,3)           -65.86           estimate D2E/DX2                !
 ! D64   D(31,7,9,34)           51.7945         estimate D2E/DX2                !
 ! D65   D(32,7,9,2)            55.7723         estimate D2E/DX2                !
 ! D66   D(32,7,9,3)          -178.3945         estimate D2E/DX2                !
 ! D67   D(32,7,9,34)          -60.74           estimate D2E/DX2                !
 ! D68   D(1,8,10,15)          151.2144         estimate D2E/DX2                !
 ! D69   D(1,8,10,35)          -80.2761         estimate D2E/DX2                !
 ! D70   D(7,8,10,15)          -88.0884         estimate D2E/DX2                !
 ! D71   D(7,8,10,35)           40.4211         estimate D2E/DX2                !
 ! D72   D(33,8,10,15)          33.9553         estimate D2E/DX2                !
 ! D73   D(33,8,10,35)         162.4648         estimate D2E/DX2                !
 ! D74   D(8,10,15,6)         -167.1202         estimate D2E/DX2                !
 ! D75   D(8,10,15,13)          78.1876         estimate D2E/DX2                !
 ! D76   D(8,10,15,14)         -52.8625         estimate D2E/DX2                !
 ! D77   D(35,10,15,6)          64.4939         estimate D2E/DX2                !
 ! D78   D(35,10,15,13)        -50.1983         estimate D2E/DX2                !
 ! D79   D(35,10,15,14)        178.7516         estimate D2E/DX2                !
 --------------------------------------------------------------------------------
 Trust Radius=3.00D-01 FncErr=1.00D-07 GrdErr=1.00D-06
 Number of steps in this run=    186 maximum allowed number of steps=    210.
 GradGradGradGradGradGradGradGradGradGradGradGradGradGradGradGradGradGrad

                          Input orientation:                          
 ---------------------------------------------------------------------
 Center     Atomic      Atomic             Coordinates (Angstroms)
 Number     Number       Type             X           Y           Z
 ---------------------------------------------------------------------
      1          6           0       -1.334158   -2.221868    4.615004
      2          6           0        2.428718   -0.560416    5.881119
      3          6           0        1.169472   -2.565766    6.715586
      4          6           0       -3.715887   -2.460127    5.209596
      5          6           0       -2.824214   -0.190934    4.825367
      6          6           0       -0.836771    0.754524    0.699276
      7          6           0        1.202570   -2.038210    4.202828
      8          6           0       -0.155936   -1.309891    4.168540
      9          6           0        1.959400   -1.978652    5.548222
     10          7           0       -0.494485   -0.938681    2.749548
     11          7           0       -2.558700   -1.622284    4.922174
     12          8           0       -1.211089   -3.453170    4.653800
     13          8           0        1.490739    0.374867    1.892178
     14          8           0       -0.338709    1.557095    3.160856
     15         16           0        0.085708    0.549283    2.206202
     16          1           0        1.592181    0.105959    6.112083
     17          1           0        3.090602   -0.571936    6.754015
     18          1           0        2.989321   -0.128305    5.045621
     19          1           0        0.284270   -1.966726    6.950970
     20          1           0        0.849129   -3.588814    6.494687
     21          1           0        1.790129   -2.603015    7.617623
     22          1           0       -4.151655   -2.145412    6.162467
     23          1           0       -3.456909   -3.519473    5.276201
     24          1           0       -4.450058   -2.326017    4.409517
     25          1           0       -3.121497    0.037212    3.797998
     26          1           0       -1.951763    0.402842    5.094542
     27          1           0       -3.636632    0.078793    5.507040
     28          1           0       -0.541272    1.705340    0.250735
     29          1           0       -0.595844   -0.067062    0.022359
     30          1           0       -1.902020    0.770054    0.936839
     31          1           0        1.078731   -3.091087    3.919190
     32          1           0        1.870914   -1.620227    3.440941
     33          1           0       -0.128584   -0.423786    4.801705
     34          1           0        2.862101   -2.592483    5.425959
     35          1           0       -0.242923   -1.695487    2.101229
 ---------------------------------------------------------------------
                    Distance matrix (angstroms):
                    1          2          3          4          5
     1  C    0.000000
     2  C    4.303801   0.000000
     3  C    3.286164   2.510670   0.000000
     4  C    2.466362   6.466530   5.113306   0.000000
     5  C    2.527689   5.370700   5.016202   2.468187   0.000000
     6  C    4.943605   6.264502   7.158584   6.242297   4.676371
     7  C    2.576549   2.550289   2.567754   5.038136   4.473809
     8  C    1.555390   3.189839   3.133906   3.883309   2.967018
     9  C    3.431847   1.530514   1.526901   5.705731   5.157657
    10  N    2.414859   4.300574   4.598436   4.329441   3.208705
    11  N    1.397626   5.188591   4.243319   1.457282   1.458983
    12  O    1.238045   4.808589   3.271928   2.751191   3.643321
    13  O    4.704982   4.203119   5.658251   6.793482   5.248099
    14  O    4.169656   4.420671   5.648779   5.633892   3.464670
    15  S    3.936702   4.497348   5.586825   5.703424   3.984419
    16  H    4.027839   1.094163   2.771464   5.964467   4.609592
    17  H    5.184221   1.095524   2.769039   7.230407   6.232969
    18  H    4.822956   1.095013   3.470137   7.100993   5.818044
    19  H    2.853268   2.778659   1.094458   4.390567   4.163448
    20  H    3.188807   3.470268   1.094551   4.874911   5.275004
    21  H    4.349961   2.755985   1.095570   6.011258   5.908214
    22  H    3.215397   6.774413   5.366286   1.094030   2.714759
    23  H    2.574303   6.615327   4.938095   1.092575   3.418000
    24  H    3.124405   7.252621   6.079025   1.094129   2.715672
    25  H    2.994248   5.958308   5.805189   2.929609   1.093578
    26  H    2.738703   4.553590   4.602448   3.364812   1.089127
    27  H    3.374931   6.110400   5.617198   2.557512   1.094282
    28  H    5.924396   6.756901   7.934941   7.212461   5.452975
    29  H    5.126469   6.611841   7.359290   6.509137   5.296213
    30  H    4.775245   6.706068   7.345453   5.655143   4.110303
    31  H    2.657392   3.475044   2.846757   5.005160   4.946213
    32  H    3.465960   2.718237   3.479851   5.919959   5.099386
    33  H    2.172870   2.779135   3.152137   4.145093   2.705772
    34  H    4.289940   2.127038   2.128108   6.582876   6.201800
    35  H    2.790508   4.765881   4.903522   4.723145   4.043225
                    6          7          8          9         10
     6  C    0.000000
     7  C    4.922718   0.000000
     8  C    4.094037   1.541805   0.000000
     9  C    6.229053   1.544806   2.612549   0.000000
    10  N    2.680993   2.490177   1.505308   3.864669   0.000000
    11  N    5.142677   3.851961   2.537485   4.575169   3.073858
    12  O    5.786455   2.833944   2.437718   3.609182   3.234556
    13  O    2.642812   3.353369   3.275938   4.373254   2.530140
    14  O    2.636582   4.048143   3.044412   4.845857   2.534234
    15  S    1.778741   3.453840   2.713980   4.590237   1.686975
    16  H    5.968160   2.897329   2.972861   2.190523   4.092932
    17  H    7.337822   3.496167   4.215361   2.170808   5.387310
    18  H    5.857396   2.747821   3.472472   2.176495   4.250361
    19  H    6.909820   2.898391   2.892598   2.184927   4.394915
    20  H    7.435968   2.789607   3.408020   2.172813   4.780644
    21  H    8.126328   3.510706   4.165994   2.168156   5.629176
    22  H    7.017445   5.702578   4.543083   6.144111   5.145785
    23  H    6.788256   5.005698   4.123783   5.637777   4.671233
    24  H    6.025899   5.663722   4.419283   6.519084   4.508520
    25  H    3.916196   4.813399   3.278191   5.739556   2.992124
    26  H    4.548104   4.087016   2.648760   4.601580   3.069583
    27  H    5.604501   5.440638   3.979355   5.962412   4.302569
    28  H    1.092044   5.716134   4.958760   6.920153   3.638283
    29  H    1.091452   4.959439   4.350743   6.381114   2.864883
    30  H    1.091527   5.309568   4.221241   6.612927   2.861267
    31  H    5.368959   1.097423   2.181568   2.160286   2.911344
    32  H    4.526337   1.096296   2.175737   2.139376   2.556881
    33  H    4.326647   2.176462   1.089416   2.708242   2.147173
    34  H    6.872092   2.134786   3.512078   1.098456   4.600533
    35  H    2.884559   2.573640   2.104763   4.100265   1.027792
                   11         12         13         14         15
    11  N    0.000000
    12  O    2.289153   0.000000
    13  O    5.437596   5.438777   0.000000
    14  O    4.258997   5.300253   2.520732   0.000000
    15  S    4.368650   4.867448   1.450222   1.451613   0.000000
    16  H    4.651078   4.759445   4.229682   3.813643   4.209739
    17  H    6.031044   5.587214   5.205138   5.404049   5.564991
    18  H    5.746978   5.371378   3.527483   4.179557   4.117329
    19  H    3.509577   3.118108   5.703508   5.212521   5.374248
    20  H    4.237137   2.766182   6.107824   6.245459   6.008140
    21  H    5.209568   4.302827   6.460506   6.457650   6.490417
    22  H    2.085543   3.554325   7.511576   6.103833   6.392859
    23  H    2.128718   2.331413   7.148197   6.322136   6.207238
    24  H    2.082136   3.438177   6.994629   5.791451   5.804749
    25  H    2.081932   4.069990   5.001887   3.234177   3.616931
    26  H    2.121137   3.951162   4.701780   2.770087   3.537688
    27  H    2.097062   4.368757   6.280511   4.308857   4.997270
    28  H    6.079921   6.815120   2.931477   2.920927   2.356570
    29  H    5.502700   5.770139   2.836433   3.543187   2.369297
    30  H    4.694402   5.668228   3.546781   2.830128   2.368773
    31  H    4.048984   2.431879   4.036256   4.918313   4.143997
    32  H    4.670711   3.785426   2.554134   3.880239   3.068927
    33  H    2.712264   3.220382   3.424238   2.580781   2.780183
    34  H    5.529934   4.234134   4.813877   5.709192   5.286387
    35  H    3.650468   3.246909   2.708440   3.422174   2.271125
                   16         17         18         19         20
    16  H    0.000000
    17  H    1.765470   0.000000
    18  H    1.773195   1.767958   0.000000
    19  H    2.590441   3.140021   3.785162   0.000000
    20  H    3.788120   3.767361   4.319182   1.777197   0.000000
    21  H    3.105539   2.561705   3.765295   1.765475   1.765861
    22  H    6.169511   7.434786   7.503973   4.509001   5.215517
    23  H    6.271824   7.330881   7.287460   4.383183   4.475654
    24  H    6.732154   8.089192   7.783247   5.385344   5.833007
    25  H    5.251521   6.906466   6.239075   5.055318   6.015485
    26  H    3.699064   5.397174   4.969791   3.749803   5.073334
    27  H    5.263773   6.872705   6.645228   4.652156   5.877826
    28  H    6.439336   7.789040   6.230432   7.684968   8.303506
    29  H    6.473186   7.691553   6.171736   7.238023   7.508775
    30  H    6.279619   7.782465   6.450919   6.959856   7.580120
    31  H    3.910693   4.293016   3.700984   3.329722   2.633179
    32  H    3.192556   3.682800   2.460013   3.867532   3.774220
    33  H    2.226826   3.767841   3.141359   2.677770   3.720149
    34  H    3.060237   2.428695   2.496601   3.059811   2.487350
    35  H    4.764427   5.832939   4.644664   4.885845   4.907110
                   21         22         23         24         25
    21  H    0.000000
    22  H    6.134466   0.000000
    23  H    5.818381   1.776565   0.000000
    24  H    7.022008   1.787315   1.778152   0.000000
    25  H    6.759024   3.378725   3.866212   2.779187   0.000000
    26  H    5.422442   3.531796   4.205119   3.762633   1.784093
    27  H    6.410647   2.375272   3.610140   2.765742   1.785474
    28  H    8.846942   7.925385   7.813765   6.987554   4.692898
    29  H    8.355355   7.393528   6.907076   6.261389   4.543705
    30  H    8.345205   6.392807   6.296650   5.304493   3.195374
    31  H    3.797724   5.769188   4.753633   5.602969   5.238593
    32  H    4.291511   6.629770   5.946513   6.433581   5.272453
    33  H    4.044736   4.582659   4.570139   4.737872   3.190215
    34  H    2.439800   7.066476   6.388398   7.387274   6.735651
    35  H    5.948740   5.654579   4.872072   4.840015   3.763969
                   26         27         28         29         30
    26  H    0.000000
    27  H    1.764638   0.000000
    28  H    5.210418   6.313133   0.000000
    29  H    5.271278   6.272910   1.787888   0.000000
    30  H    4.174185   4.936949   1.788052   1.800870   0.000000
    31  H    4.772095   5.899497   6.252014   5.209052   5.717317
    32  H    4.630342   6.122785   5.201485   4.492652   5.120449
    33  H    2.023128   3.613376   5.041311   4.815365   4.416732
    34  H    5.679357   7.026793   7.539043   6.894493   7.359056
    35  H    4.035225   5.124927   3.883164   2.664211   3.191755
                   31         32         33         34         35
    31  H    0.000000
    32  H    1.737730   0.000000
    33  H    3.057931   2.698359   0.000000
    34  H    2.387334   2.422402   3.746617   0.000000
    35  H    2.645648   2.503757   2.987117   4.636766   0.000000
 Stoichiometry    C9H20N2O3S
 Framework group  C1[X(C9H20N2O3S)]
 Deg. of freedom    99
 Full point group                 C1      NOp   1
 Largest Abelian subgroup         C1      NOp   1
 Largest concise Abelian subgroup C1      NOp   1
                         Standard orientation:                         
 ---------------------------------------------------------------------
 Center     Atomic      Atomic             Coordinates (Angstroms)
 Number     Number       Type             X           Y           Z
 ---------------------------------------------------------------------
      1          6           0        1.450764   -0.873820   -0.478999
      2          6           0        0.817267    3.065852    1.133565
      3          6           0        2.900099    1.986842    0.238571
      4          6           0        2.409234   -3.096892   -0.007589
      5          6           0        0.559956   -2.291304    1.414784
      6          6           0       -3.483708   -1.133951   -0.629174
      7          6           0        0.642952    1.536373   -0.899729
      8          6           0        0.362230    0.198193   -0.187247
      9          6           0        1.521779    2.538308   -0.118567
     10          7           0       -0.905209   -0.406593   -0.729264
     11          7           0        1.491928   -2.015035    0.326787
     12          8           0        2.234143   -0.748095   -1.429402
     13          8           0       -2.679825    1.378975   -0.476094
     14          8           0       -2.178723   -0.169415    1.448866
     15         16           0       -2.339981    0.061105    0.024775
     16          1           0        0.700544    2.290833    1.897053
     17          1           0        1.393481    3.883459    1.580408
     18          1           0       -0.175971    3.455899    0.887813
     19          1           0        2.836216    1.164783    0.958276
     20          1           0        3.420302    1.627862   -0.655053
     21          1           0        3.520863    2.769555    0.688334
     22          1           0        3.005389   -3.340308    0.876859
     23          1           0        3.085838   -2.832095   -0.823562
     24          1           0        1.822595   -3.971154   -0.305310
     25          1           0       -0.324458   -2.780451    0.997099
     26          1           0        0.263665   -1.382133    1.936143
     27          1           0        1.032988   -2.956647    2.143491
     28          1           0       -4.466829   -0.928448   -0.200454
     29          1           0       -3.522047   -1.029604   -1.714949
     30          1           0       -3.153273   -2.133455   -0.340667
     31          1           0        1.104642    1.358071   -1.879212
     32          1           0       -0.301172    2.046292   -1.124400
     33          1           0        0.286738    0.348804    0.889064
     34          1           0        1.678833    3.399298   -0.782370
     35          1           0       -0.963880   -0.286169   -1.748289
 ---------------------------------------------------------------------
 Rotational constants (GHZ):      0.5889387      0.4389343      0.3022189
 Standard basis: 6-31G(d) (6D, 7F)
 There are   269 symmetry adapted basis functions of A   symmetry.
 Integral buffers will be    131072 words long.
 Raffenetti 2 integral format.
 Two-electron integral symmetry is turned on.
   269 basis functions,   524 primitive gaussians,   269 cartesian basis functions
    64 alpha electrons       64 beta electrons
       nuclear repulsion energy      1300.5963679888 Hartrees.
 NAtoms=   35 NActive=   35 NUniq=   35 SFac= 1.00D+00 NAtFMM=   60 NAOKFM=F Big=F
 One-electron integrals computed using PRISM.
 NBasis=   269 RedAO= T  NBF=   269
 NBsUse=   269 1.00D-06 NBFU=   269
 Harris functional with IExCor=  402 diagonalized for initial guess.
 ExpMin= 1.17D-01 ExpMax= 2.19D+04 ExpMxC= 3.30D+03 IAcc=3 IRadAn=         5 AccDes= 0.00D+00
 HarFok:  IExCor=  402 AccDes= 0.00D+00 IRadAn=         5 IDoV= 1
 ScaDFX=  1.000000  1.000000  1.000000  1.000000
 FoFCou: FMM=F IPFlag=           0 FMFlag=      100000 FMFlg1=           0
         NFxFlg=           0 DoJE=T BraDBF=F KetDBF=T FulRan=T
         Omega=  0.000000  0.000000  1.000000  0.000000  0.000000 ICntrl=     500 IOpCl=  0
         NMat0=    1 NMatS0=    1 NMatT0=    0 NMatD0=    1 NMtDS0=    0 NMtDT0=    0
         I1Cent=           4 NGrid=           0.
 Petite list used in FoFCou.
 Initial guess orbital symmetries:
       Occupied  (A) (A) (A) (A) (A) (A) (A) (A) (A) (A) (A) (A)
                 (A) (A) (A) (A) (A) (A) (A) (A) (A) (A) (A) (A)
                 (A) (A) (A) (A) (A) (A) (A) (A) (A) (A) (A) (A)
                 (A) (A) (A) (A) (A) (A) (A) (A) (A) (A) (A) (A)
                 (A) (A) (A) (A) (A) (A) (A) (A) (A) (A) (A) (A)
                 (A) (A) (A) (A)
       Virtual   (A) (A) (A) (A) (A) (A) (A) (A) (A) (A) (A) (A)
                 (A) (A) (A) (A) (A) (A) (A) (A) (A) (A) (A) (A)
                 (A) (A) (A) (A) (A) (A) (A) (A) (A) (A) (A) (A)
                 (A) (A) (A) (A) (A) (A) (A) (A) (A) (A) (A) (A)
                 (A) (A) (A) (A) (A) (A) (A) (A) (A) (A) (A) (A)
                 (A) (A) (A) (A) (A) (A) (A) (A) (A) (A) (A) (A)
                 (A) (A) (A) (A) (A) (A) (A) (A) (A) (A) (A) (A)
                 (A) (A) (A) (A) (A) (A) (A) (A) (A) (A) (A) (A)
                 (A) (A) (A) (A) (A) (A) (A) (A) (A) (A) (A) (A)
                 (A) (A) (A) (A) (A) (A) (A) (A) (A) (A) (A) (A)
                 (A) (A) (A) (A) (A) (A) (A) (A) (A) (A) (A) (A)
                 (A) (A) (A) (A) (A) (A) (A) (A) (A) (A) (A) (A)
                 (A) (A) (A) (A) (A) (A) (A) (A) (A) (A) (A) (A)
                 (A) (A) (A) (A) (A) (A) (A) (A) (A) (A) (A) (A)
                 (A) (A) (A) (A) (A) (A) (A) (A) (A) (A) (A) (A)
                 (A) (A) (A) (A) (A) (A) (A) (A) (A) (A) (A) (A)
                 (A) (A) (A) (A) (A) (A) (A) (A) (A) (A) (A) (A)
                 (A)
 The electronic state of the initial guess is 1-A.
 Requested convergence on RMS density matrix=1.00D-08 within 128 cycles.
 Requested convergence on MAX density matrix=1.00D-06.
 Requested convergence on             energy=1.00D-06.
 No special actions if energy rises.
 Integral accuracy reduced to 1.0D-05 until final iterations.
 Initial convergence to 1.0D-05 achieved.  Increase integral accuracy.
 SCF Done:  E(RB3LYP) =  -1088.30348917     A.U. after   15 cycles
             Convg  =    0.5394D-08             -V/T =  2.0074
 Calling FoFJK, ICntrl=      2127 FMM=F ISym2X=0 I1Cent= 0 IOpClX= 0 NMat=1 NMatS=1 NMatT=0.
 ***** Axes restored to original set *****
 -------------------------------------------------------------------
 Center     Atomic                   Forces (Hartrees/Bohr)
 Number     Number              X              Y              Z
 -------------------------------------------------------------------
      1        6          -0.019813453   -0.012045802    0.006083478
      2        6           0.004694824    0.000734343   -0.001438077
      3        6           0.001603618   -0.007018067    0.002143839
      4        6           0.000987655    0.000792209   -0.000972857
      5        6           0.000551642   -0.006254404   -0.003354472
      6        6          -0.006451804   -0.000591304   -0.006481581
      7        6           0.008848589   -0.005934766    0.004341362
      8        6          -0.000957040   -0.014179365   -0.012009446
      9        6          -0.000903503    0.001676622    0.001526353
     10        7          -0.016282945   -0.000153751    0.007523047
     11        7           0.026113070   -0.007748574    0.003324669
     12        8           0.002286552    0.015715393   -0.002540363
     13        8           0.024125455    0.008052908   -0.011701942
     14        8          -0.004890772    0.011609025    0.011202760
     15       16          -0.001497925   -0.017368546    0.004787408
     16        1          -0.000899874    0.001881999    0.000267024
     17        1          -0.000345741    0.000644497    0.001199448
     18        1          -0.000180813    0.001910242   -0.000333682
     19        1          -0.001977682    0.000030684    0.000469174
     20        1          -0.002719795    0.000818849    0.000418360
     21        1           0.000289953    0.001356294    0.001195838
     22        1          -0.003341371    0.000110986    0.000657077
     23        1           0.005392672    0.004282830   -0.001872246
     24        1          -0.005272103   -0.001182858    0.000111127
     25        1          -0.001395656    0.007427422   -0.000792864
     26        1          -0.000046741    0.001027492   -0.002340228
     27        1          -0.000253029   -0.001350708    0.000112410
     28        1           0.001741592    0.000090195    0.000631539
     29        1          -0.000578741    0.000100642   -0.001269842
     30        1           0.000412621   -0.000455694   -0.000430746
     31        1          -0.006604426    0.000959867    0.001979142
     32        1          -0.004131688    0.005497805    0.000477031
     33        1          -0.000066307    0.004626891   -0.006614461
     34        1           0.000034013   -0.000921390   -0.001974061
     35        1           0.001529156    0.005858033    0.005675783
 -------------------------------------------------------------------
 Cartesian Forces:  Max     0.026113070 RMS     0.006495629

 GradGradGradGradGradGradGradGradGradGradGradGradGradGradGradGradGradGrad
 Berny optimization.
 Internal  Forces:  Max     0.024938939 RMS     0.004511972
 Search for a local minimum.
 Step number   1 out of a maximum of  186
 All quantities printed in internal units (Hartrees-Bohrs-Radians)
 Mixed Optimization -- RFO/linear search
 Second derivative matrix not updated -- first step.
 ITU=  0
     Eigenvalues ---    0.00230   0.00230   0.00230   0.00299   0.00362
     Eigenvalues ---    0.00410   0.00652   0.00827   0.00912   0.00934
     Eigenvalues ---    0.01167   0.01468   0.01723   0.02276   0.03094
     Eigenvalues ---    0.03211   0.04534   0.04624   0.04721   0.04868
     Eigenvalues ---    0.05028   0.05400   0.05445   0.05591   0.05633
     Eigenvalues ---    0.06073   0.06228   0.06561   0.07334   0.07361
     Eigenvalues ---    0.07667   0.07734   0.08466   0.08839   0.09355
     Eigenvalues ---    0.12052   0.12310   0.12571   0.16000   0.16000
     Eigenvalues ---    0.16000   0.16000   0.16000   0.16000   0.16000
     Eigenvalues ---    0.16000   0.16000   0.16000   0.16000   0.16000
     Eigenvalues ---    0.16000   0.16000   0.16000   0.16907   0.17055
     Eigenvalues ---    0.17411   0.17525   0.17699   0.21902   0.23083
     Eigenvalues ---    0.24772   0.24873   0.24980   0.25000   0.25000
     Eigenvalues ---    0.27198   0.27866   0.28097   0.28360   0.29376
     Eigenvalues ---    0.29711   0.31827   0.33853   0.33969   0.34095
     Eigenvalues ---    0.34177   0.34182   0.34240   0.34292   0.34303
     Eigenvalues ---    0.34322   0.34336   0.34340   0.34351   0.34402
     Eigenvalues ---    0.34517   0.34578   0.34637   0.34645   0.34880
     Eigenvalues ---    0.34914   0.37092   0.37307   0.37505   0.43118
     Eigenvalues ---    0.46016   0.87815   0.95223   0.95840
 RFO step:  Lambda=-1.43290143D-02 EMin= 2.30000000D-03
 Linear search not attempted -- first point.
 Iteration  1 RMS(Cart)=  0.07102887 RMS(Int)=  0.00191241
 Iteration  2 RMS(Cart)=  0.00247632 RMS(Int)=  0.00030482
 Iteration  3 RMS(Cart)=  0.00000464 RMS(Int)=  0.00030480
 Iteration  4 RMS(Cart)=  0.00000001 RMS(Int)=  0.00030480
 Variable       Old X    -DE/DX   Delta X   Delta X   Delta X     New X
                                 (Linear)    (Quad)   (Total)
    R1        2.93926  -0.00485   0.00000  -0.01695  -0.01695   2.92231
    R2        2.64113  -0.02229   0.00000  -0.04698  -0.04698   2.59415
    R3        2.33957  -0.01548   0.00000  -0.01735  -0.01735   2.32222
    R4        2.89225   0.00573   0.00000   0.01860   0.01860   2.91085
    R5        2.06767   0.00189   0.00000   0.00529   0.00529   2.07295
    R6        2.07024   0.00074   0.00000   0.00208   0.00208   2.07232
    R7        2.06927   0.00092   0.00000   0.00257   0.00257   2.07184
    R8        2.88543   0.00653   0.00000   0.02097   0.02097   2.90640
    R9        2.06823   0.00172   0.00000   0.00481   0.00481   2.07303
   R10        2.06840  -0.00005   0.00000  -0.00015  -0.00015   2.06825
   R11        2.07033   0.00110   0.00000   0.00310   0.00310   2.07342
   R12        2.75386  -0.00094   0.00000  -0.00242  -0.00242   2.75144
   R13        2.06742   0.00194   0.00000   0.00541   0.00541   2.07282
   R14        2.06467  -0.00299   0.00000  -0.00831  -0.00831   2.05636
   R15        2.06760   0.00331   0.00000   0.00926   0.00926   2.07686
   R16        2.75708   0.00146   0.00000   0.00380   0.00380   2.76088
   R17        2.06656   0.00267   0.00000   0.00746   0.00746   2.07403
   R18        2.05815  -0.00006   0.00000  -0.00015  -0.00015   2.05800
   R19        2.06789  -0.00008   0.00000  -0.00021  -0.00021   2.06768
   R20        3.36133   0.00883   0.00000   0.03013   0.03013   3.39147
   R21        2.06366   0.00029   0.00000   0.00080   0.00080   2.06447
   R22        2.06255   0.00058   0.00000   0.00162   0.00162   2.06417
   R23        2.06269  -0.00050   0.00000  -0.00139  -0.00139   2.06129
   R24        2.91359  -0.00257   0.00000  -0.00861  -0.00861   2.90497
   R25        2.91926   0.00287   0.00000   0.00972   0.00972   2.92898
   R26        2.07383  -0.00069   0.00000  -0.00194  -0.00194   2.07189
   R27        2.07170  -0.00075   0.00000  -0.00212  -0.00212   2.06958
   R28        2.84462  -0.00718   0.00000  -0.02158  -0.02158   2.82304
   R29        2.05870  -0.00008   0.00000  -0.00023  -0.00023   2.05847
   R30        2.07578   0.00076   0.00000   0.00216   0.00216   2.07794
   R31        3.18792   0.00674   0.00000   0.01731   0.01731   3.20523
   R32        1.94224  -0.00752   0.00000  -0.01688  -0.01688   1.92537
   R33        2.74052   0.02494   0.00000   0.02564   0.02564   2.76616
   R34        2.74315   0.01686   0.00000   0.01744   0.01744   2.76059
    A1        2.06604  -0.00426   0.00000  -0.01589  -0.01594   2.05010
    A2        2.11395  -0.00284   0.00000  -0.01056  -0.01062   2.10333
    A3        2.10235   0.00712   0.00000   0.02719   0.02714   2.12949
    A4        1.95608   0.00051   0.00000   0.00039   0.00039   1.95647
    A5        1.92711   0.00039   0.00000   0.00318   0.00314   1.93026
    A6        1.93553   0.00184   0.00000   0.01209   0.01205   1.94758
    A7        1.87562  -0.00091   0.00000  -0.00815  -0.00815   1.86748
    A8        1.88825  -0.00156   0.00000  -0.01077  -0.01076   1.87748
    A9        1.87841  -0.00042   0.00000   0.00251   0.00243   1.88084
   A10        1.95238   0.00025   0.00000  -0.00307  -0.00305   1.94933
   A11        1.93533   0.00221   0.00000   0.01438   0.01433   1.94966
   A12        1.92780  -0.00037   0.00000   0.00060   0.00053   1.92833
   A13        1.89471  -0.00210   0.00000  -0.01713  -0.01710   1.87761
   A14        1.87521  -0.00046   0.00000  -0.00606  -0.00606   1.86915
   A15        1.87569   0.00037   0.00000   0.01094   0.01081   1.88650
   A16        1.89936   0.00414   0.00000   0.02482   0.02449   1.92385
   A17        1.96194  -0.01135   0.00000  -0.06810  -0.06770   1.89424
   A18        1.89456   0.00717   0.00000   0.04296   0.04284   1.93740
   A19        1.89677   0.00266   0.00000   0.01161   0.01179   1.90856
   A20        1.91173  -0.00392   0.00000  -0.01612  -0.01692   1.89481
   A21        1.89914   0.00128   0.00000   0.00504   0.00564   1.90478
   A22        1.89281   0.01051   0.00000   0.06286   0.06275   1.95556
   A23        1.95269   0.00043   0.00000   0.00171   0.00143   1.95413
   A24        1.91303  -0.00383   0.00000  -0.02382  -0.02375   1.88929
   A25        1.91368  -0.00508   0.00000  -0.02576  -0.02616   1.88752
   A26        1.90920  -0.00297   0.00000  -0.01551  -0.01528   1.89392
   A27        1.88218   0.00070   0.00000  -0.00087  -0.00097   1.88121
   A28        1.88399  -0.00282   0.00000  -0.01750  -0.01747   1.86653
   A29        1.90085   0.00210   0.00000   0.01206   0.01205   1.91289
   A30        1.90010   0.00062   0.00000   0.00489   0.00487   1.90497
   A31        1.91870  -0.00010   0.00000  -0.00340  -0.00335   1.91535
   A32        1.91887   0.00108   0.00000   0.00628   0.00629   1.92516
   A33        1.94026  -0.00092   0.00000  -0.00265  -0.00272   1.93754
   A34        2.01843   0.00429   0.00000   0.01175   0.01194   2.03036
   A35        1.92626  -0.00486   0.00000  -0.04129  -0.04139   1.88487
   A36        1.91942  -0.00457   0.00000  -0.03711  -0.03723   1.88219
   A37        1.89375   0.00080   0.00000   0.01307   0.01298   1.90673
   A38        1.86699   0.00093   0.00000   0.01710   0.01707   1.88406
   A39        1.82861   0.00359   0.00000   0.04184   0.04083   1.86944
   A40        1.96502  -0.00615   0.00000  -0.01565  -0.01664   1.94838
   A41        1.81812  -0.00017   0.00000   0.01300   0.01256   1.83068
   A42        1.90615   0.00393   0.00000   0.01814   0.01805   1.92420
   A43        1.91306   0.01028   0.00000   0.06410   0.06427   1.97733
   A44        1.92749  -0.00046   0.00000  -0.00609  -0.00519   1.92230
   A45        1.93151  -0.00764   0.00000  -0.07484  -0.07447   1.85704
   A46        1.92693   0.00100   0.00000   0.01286   0.01280   1.93973
   A47        1.95561  -0.00015   0.00000   0.00301   0.00290   1.95850
   A48        1.86506   0.00005   0.00000  -0.00058  -0.00059   1.86447
   A49        1.97965   0.00006   0.00000   0.00389   0.00379   1.98344
   A50        1.87064  -0.00004   0.00000  -0.00143  -0.00145   1.86919
   A51        1.85890  -0.00099   0.00000  -0.01966  -0.01965   1.83924
   A52        2.03060   0.00226   0.00000   0.00557   0.00552   2.03612
   A53        1.93691  -0.00067   0.00000  -0.00834  -0.00843   1.92848
   A54        1.94135  -0.00176   0.00000  -0.01765  -0.01770   1.92365
   A55        2.08568  -0.00445   0.00000  -0.01772  -0.01776   2.06792
   A56        2.17213   0.00330   0.00000   0.01184   0.01175   2.18387
   A57        2.01820   0.00109   0.00000   0.00345   0.00338   2.02158
   A58        1.76835  -0.00830   0.00000  -0.02764  -0.02737   1.74098
   A59        1.91016  -0.00575   0.00000  -0.03395  -0.03364   1.87652
   A60        1.90225   0.00196   0.00000  -0.01330  -0.01398   1.88827
   A61        1.87221   0.01459   0.00000   0.09869   0.09842   1.97062
   A62        1.87548  -0.00145   0.00000  -0.01263  -0.01354   1.86194
   A63        2.10502  -0.00191   0.00000  -0.01125  -0.01315   2.09186
    D1        2.89215  -0.00424   0.00000  -0.05515  -0.05491   2.83724
    D2       -1.31964   0.00481   0.00000   0.02162   0.02164  -1.29801
    D3        0.74440  -0.00227   0.00000  -0.04971  -0.04971   0.69469
    D4       -0.29355  -0.00370   0.00000  -0.03533  -0.03526  -0.32881
    D5        1.77784   0.00535   0.00000   0.04145   0.04129   1.81913
    D6       -2.44131  -0.00173   0.00000  -0.02989  -0.03006  -2.47136
    D7        3.03225   0.00086   0.00000   0.02910   0.02925   3.06149
    D8        0.02497   0.00137   0.00000   0.05155   0.05165   0.07662
    D9       -0.06554   0.00058   0.00000   0.01040   0.01029  -0.05525
   D10       -3.07282   0.00110   0.00000   0.03284   0.03269  -3.04013
   D11       -1.02108  -0.00009   0.00000  -0.00771  -0.00772  -1.02881
   D12        1.20364   0.00066   0.00000   0.01005   0.01007   1.21371
   D13       -3.04975  -0.00059   0.00000  -0.01238  -0.01239  -3.06214
   D14        1.06931  -0.00065   0.00000  -0.01560  -0.01564   1.05367
   D15       -2.98916   0.00010   0.00000   0.00215   0.00215  -2.98701
   D16       -0.95936  -0.00115   0.00000  -0.02028  -0.02031  -0.97966
   D17       -3.13335   0.00026   0.00000  -0.00268  -0.00268  -3.13603
   D18       -0.90863   0.00101   0.00000   0.01507   0.01511  -0.89352
   D19        1.12117  -0.00024   0.00000  -0.00736  -0.00734   1.11382
   D20        1.04604   0.00009   0.00000   0.00310   0.00313   1.04917
   D21       -1.16535  -0.00057   0.00000  -0.01452  -0.01454  -1.17989
   D22        3.07122   0.00064   0.00000   0.00837   0.00838   3.07960
   D23       -3.11930  -0.00088   0.00000  -0.01085  -0.01087  -3.13016
   D24        0.95250  -0.00154   0.00000  -0.02847  -0.02854   0.92396
   D25       -1.09411  -0.00033   0.00000  -0.00558  -0.00562  -1.09973
   D26       -1.04185   0.00075   0.00000   0.01235   0.01241  -1.02944
   D27        3.02995   0.00010   0.00000  -0.00527  -0.00526   3.02468
   D28        0.98333   0.00131   0.00000   0.01762   0.01766   1.00099
   D29        2.23055  -0.00088   0.00000  -0.00239  -0.00287   2.22768
   D30       -1.03383  -0.00113   0.00000  -0.02208  -0.02238  -1.05621
   D31        0.12855   0.00021   0.00000   0.00962   0.00935   0.13790
   D32       -3.13583  -0.00004   0.00000  -0.01008  -0.01016   3.13720
   D33       -1.97317   0.00093   0.00000   0.01729   0.01776  -1.95540
   D34        1.04565   0.00067   0.00000  -0.00241  -0.00175   1.04389
   D35        1.49678   0.00031   0.00000   0.01530   0.01545   1.51223
   D36       -1.51518   0.00120   0.00000   0.03847   0.03881  -1.47636
   D37       -0.61611  -0.00065   0.00000   0.00430   0.00409  -0.61202
   D38        2.65512   0.00024   0.00000   0.02747   0.02746   2.68258
   D39       -2.70309   0.00075   0.00000   0.02012   0.01989  -2.68321
   D40        0.56814   0.00164   0.00000   0.04329   0.04325   0.61139
   D41        3.13860  -0.00477   0.00000  -0.03323  -0.03313   3.10547
   D42       -1.17128   0.00560   0.00000   0.05210   0.05185  -1.11943
   D43        1.16451  -0.00005   0.00000  -0.00155  -0.00138   1.16314
   D44       -1.06199  -0.00532   0.00000  -0.04056  -0.04050  -1.10249
   D45        0.91132   0.00504   0.00000   0.04477   0.04448   0.95580
   D46       -3.03607  -0.00061   0.00000  -0.00888  -0.00875  -3.04482
   D47        1.05621  -0.00479   0.00000  -0.03347  -0.03335   1.02286
   D48        3.02952   0.00557   0.00000   0.05186   0.05162   3.08115
   D49       -0.91787  -0.00007   0.00000  -0.00179  -0.00160  -0.91947
   D50       -1.54374   0.00093   0.00000   0.02021   0.02019  -1.52355
   D51        2.72450  -0.00170   0.00000  -0.02695  -0.02690   2.69760
   D52        0.59204   0.00134   0.00000   0.02818   0.02805   0.62009
   D53        0.61395   0.00129   0.00000   0.01282   0.01266   0.62661
   D54       -1.40100  -0.00134   0.00000  -0.03435  -0.03443  -1.43543
   D55        2.74972   0.00170   0.00000   0.02078   0.02052   2.77025
   D56        2.62294   0.00020   0.00000   0.01824   0.01845   2.64139
   D57        0.60800  -0.00243   0.00000  -0.02893  -0.02864   0.57936
   D58       -1.52446   0.00061   0.00000   0.02620   0.02631  -1.49816
   D59       -1.17105  -0.00081   0.00000  -0.01830  -0.01831  -1.18936
   D60        1.02515   0.00047   0.00000   0.00483   0.00480   1.02995
   D61        3.07861  -0.00019   0.00000  -0.00741  -0.00743   3.07118
   D62        2.93751   0.00184   0.00000   0.01739   0.01756   2.95506
   D63       -1.14947   0.00312   0.00000   0.04052   0.04066  -1.10881
   D64        0.90398   0.00246   0.00000   0.02828   0.02843   0.93242
   D65        0.97341  -0.00313   0.00000  -0.04540  -0.04552   0.92789
   D66       -3.11357  -0.00186   0.00000  -0.02227  -0.02241  -3.13598
   D67       -1.06011  -0.00251   0.00000  -0.03451  -0.03464  -1.09475
   D68        2.63919   0.00170   0.00000   0.01224   0.01185   2.65104
   D69       -1.40108   0.00056   0.00000  -0.01578  -0.01617  -1.41726
   D70       -1.53743  -0.00043   0.00000   0.03355   0.03446  -1.50297
   D71        0.70548  -0.00157   0.00000   0.00553   0.00644   0.71192
   D72        0.59263   0.00085   0.00000   0.01960   0.01909   0.61172
   D73        2.83555  -0.00030   0.00000  -0.00842  -0.00893   2.82661
   D74       -2.91680   0.00002   0.00000   0.03661   0.03623  -2.88057
   D75        1.36463   0.00470   0.00000   0.05039   0.05112   1.41575
   D76       -0.92263  -0.00194   0.00000   0.00527   0.00498  -0.91765
   D77        1.12563   0.00063   0.00000   0.06013   0.05971   1.18535
   D78       -0.87613   0.00532   0.00000   0.07392   0.07461  -0.80152
   D79        3.11980  -0.00133   0.00000   0.02880   0.02846  -3.13492
         Item               Value     Threshold  Converged?
 Maximum Force            0.024939     0.000450     NO 
 RMS     Force            0.004512     0.000300     NO 
 Maximum Displacement     0.279311     0.001800     NO 
 RMS     Displacement     0.071663     0.001200     NO 
 Predicted change in Energy=-7.993797D-03
 GradGradGradGradGradGradGradGradGradGradGradGradGradGradGradGradGradGrad

                          Input orientation:                          
 ---------------------------------------------------------------------
 Center     Atomic      Atomic             Coordinates (Angstroms)
 Number     Number       Type             X           Y           Z
 ---------------------------------------------------------------------
      1          6           0       -1.316622   -2.245141    4.581828
      2          6           0        2.430954   -0.572090    5.898956
      3          6           0        1.107950   -2.560908    6.759808
      4          6           0       -3.649879   -2.461196    5.229955
      5          6           0       -2.775343   -0.202107    4.740388
      6          6           0       -0.907668    0.791022    0.738250
      7          6           0        1.203330   -2.076701    4.222836
      8          6           0       -0.145287   -1.345648    4.123245
      9          6           0        1.930098   -1.995475    5.589422
     10          7           0       -0.495827   -0.940103    2.728844
     11          7           0       -2.503201   -1.629318    4.893728
     12          8           0       -1.182584   -3.465543    4.634376
     13          8           0        1.506165    0.465355    1.744388
     14          8           0       -0.268651    1.543439    3.191272
     15         16           0        0.115243    0.548566    2.192817
     16          1           0        1.605142    0.121164    6.100836
     17          1           0        3.072733   -0.573828    6.788168
     18          1           0        3.013501   -0.159570    5.066791
     19          1           0        0.227026   -1.942695    6.972406
     20          1           0        0.756923   -3.576983    6.554296
     21          1           0        1.711730   -2.587765    7.675557
     22          1           0       -4.081643   -2.143109    6.186810
     23          1           0       -3.316293   -3.493852    5.310393
     24          1           0       -4.426745   -2.392830    4.455573
     25          1           0       -3.131001    0.043382    3.731523
     26          1           0       -1.895001    0.404884    4.946737
     27          1           0       -3.550632    0.078093    5.459849
     28          1           0       -0.630681    1.757928    0.311797
     29          1           0       -0.708832   -0.002196    0.014089
     30          1           0       -1.957151    0.795145    1.035556
     31          1           0        1.038134   -3.129052    3.963315
     32          1           0        1.869230   -1.657643    3.461015
     33          1           0       -0.119962   -0.429969    4.712699
     34          1           0        2.821474   -2.630641    5.483914
     35          1           0       -0.251746   -1.678474    2.070582
 ---------------------------------------------------------------------
                    Distance matrix (angstroms):
                    1          2          3          4          5
     1  C    0.000000
     2  C    4.310250   0.000000
     3  C    3.274424   2.539056   0.000000
     4  C    2.431222   6.402564   4.998733   0.000000
     5  C    2.515352   5.346466   4.972118   2.471431   0.000000
     6  C    4.915142   6.295821   7.180342   6.186441   4.526767
     7  C    2.550962   2.565209   2.584527   4.971495   4.428521
     8  C    1.546419   3.223129   3.162108   3.840758   2.933555
     9  C    3.408632   1.540355   1.538000   5.610906   5.106682
    10  N    2.410472   4.330253   4.631175   4.303176   3.128440
    11  N    1.372767   5.145299   4.170195   1.456001   1.460995
    12  O    1.228865   4.798843   3.253055   2.729647   3.632924
    13  O    4.833837   4.380863   5.871225   6.877403   5.268096
    14  O    4.169559   4.369769   5.610271   5.623702   3.424937
    15  S    3.944922   4.511524   5.613528   5.697281   3.925444
    16  H    4.055058   1.096960   2.806235   5.919651   4.598258
    17  H    5.189187   1.096623   2.794577   7.154279   6.207381
    18  H    4.830607   1.096372   3.501979   7.051577   5.798195
    19  H    2.861675   2.808586   1.097001   4.281983   4.126230
    20  H    3.156584   3.501605   1.094470   4.734846   5.211233
    21  H    4.342748   2.781465   1.097209   5.894391   5.868595
    22  H    3.198706   6.705587   5.237820   1.096892   2.750645
    23  H    2.467543   6.474098   4.748169   1.088177   3.384245
    24  H    3.116186   7.240613   5.997549   1.099027   2.758173
    25  H    3.041763   6.000992   5.824220   2.964362   1.097527
    26  H    2.736844   4.535977   4.593568   3.372570   1.089045
    27  H    3.340529   6.032821   5.509683   2.551605   1.094171
    28  H    5.893067   6.783726   7.953114   7.148765   5.296577
    29  H    5.124885   6.694377   7.439921   6.473152   5.162202
    30  H    4.714834   6.691596   7.309241   5.573335   3.922975
    31  H    2.590123   3.496386   2.854477   4.901825   4.869647
    32  H    3.427977   2.727181   3.503922   5.851104   5.032637
    33  H    2.178066   2.816838   3.199894   4.105332   2.665283
    34  H    4.252788   2.135978   2.137506   6.478551   6.146134
    35  H    2.785934   4.803895   4.961482   4.705486   3.959300
                    6          7          8          9         10
     6  C    0.000000
     7  C    4.982217   0.000000
     8  C    4.074896   1.537246   0.000000
     9  C    6.273066   1.549951   2.622818   0.000000
    10  N    2.669995   2.531996   1.493887   3.896387   0.000000
    11  N    5.066731   3.793234   2.496772   4.502467   3.031713
    12  O    5.777000   2.791206   2.414787   3.572394   3.237365
    13  O    2.635330   3.563210   3.415551   4.584724   2.636748
    14  O    2.644200   4.041815   3.038192   4.807237   2.536421
    15  S    1.794686   3.492411   2.717070   4.615492   1.696133
    16  H    5.959888   2.918725   3.020995   2.201659   4.112262
    17  H    7.369391   3.512012   4.248903   2.182587   5.417277
    18  H    5.917386   2.768461   3.503570   2.194870   4.288428
    19  H    6.901119   2.920833   2.934758   2.194512   4.419901
    20  H    7.461685   2.808173   3.420943   2.192827   4.812131
    21  H    8.148846   3.527172   4.196462   2.179553   5.661984
    22  H    6.954858   5.638488   4.515434   6.043154   5.124727
    23  H    6.713130   4.859844   4.009910   5.463296   4.597940
    24  H    6.028209   5.643744   4.420171   6.469386   4.532562
    25  H    3.802875   4.850006   3.316223   5.763978   2.986092
    26  H    4.339964   4.035091   2.608448   4.561376   2.947156
    27  H    5.457749   5.364093   3.925548   5.861304   4.222197
    28  H    1.092469   5.776175   4.939122   6.964119   3.624869
    29  H    1.092309   5.066901   4.359771   6.482395   2.880093
    30  H    1.090790   5.328686   4.171291   6.605752   2.830862
    31  H    5.436375   1.096396   2.146298   2.173666   2.944224
    32  H    4.595713   1.095173   2.143401   2.155911   2.577680
    33  H    4.231731   2.168593   1.089296   2.724371   2.082593
    34  H    6.937983   2.124984   3.507748   1.099599   4.631718
    35  H    2.881624   2.628312   2.082193   4.152489   1.018860
                   11         12         13         14         15
    11  N    0.000000
    12  O    2.276624   0.000000
    13  O    5.511898   5.570760   0.000000
    14  O    4.237683   5.292232   2.530951   0.000000
    15  S    4.346762   4.874283   1.463789   1.460842   0.000000
    16  H    4.625990   4.773509   4.371145   3.741595   4.204175
    17  H    5.982810   5.577505   5.382728   5.346525   5.578868
    18  H    5.711752   5.359438   3.701480   4.146122   4.142594
    19  H    3.445758   3.126091   5.896361   5.166797   5.391043
    20  H    4.144791   2.731336   6.327487   6.211317   6.037749
    21  H    5.140315   4.289094   6.674022   6.410738   6.515043
    22  H    2.104168   3.544493   7.600185   6.091206   6.388344
    23  H    2.076346   2.238418   7.186641   6.257243   6.151085
    24  H    2.115408   3.421588   7.121739   5.863652   5.865281
    25  H    2.131379   4.113882   5.062615   3.276444   3.627798
    26  H    2.123840   3.947824   4.671898   2.650090   3.412594
    27  H    2.081552   4.341246   6.286957   4.250303   4.932898
    28  H    5.997821   6.802495   2.879092   2.910060   2.357371
    29  H    5.447766   5.793640   2.849342   3.560511   2.393594
    30  H    4.589301   5.630713   3.550459   2.838677   2.386393
    31  H    3.956757   2.344171   4.249995   4.912831   4.184646
    32  H    4.601263   3.736154   2.754223   3.858785   3.090656
    33  H    2.674142   3.217143   3.500967   2.496235   2.713422
    34  H    5.450058   4.177469   5.029840   5.676973   5.316236
    35  H    3.611317   3.260845   2.791534   3.411298   2.260383
                   16         17         18         19         20
    16  H    0.000000
    17  H    1.763310   0.000000
    18  H    1.769615   1.771512   0.000000
    19  H    2.630276   3.163193   3.817767   0.000000
    20  H    3.821178   3.799555   4.357010   1.768192   0.000000
    21  H    3.135188   2.587612   3.794259   1.764903   1.774101
    22  H    6.121590   7.349108   7.451842   4.384286   5.059917
    23  H    6.157407   7.178441   7.158426   4.209926   4.259729
    24  H    6.738748   8.061758   7.792195   5.309864   5.716403
    25  H    5.296296   6.943367   6.291187   5.071900   6.015899
    26  H    3.696410   5.387683   4.942309   3.757322   5.047001
    27  H    5.195646   6.786634   6.580184   4.543360   5.754340
    28  H    6.418012   7.816377   6.290217   7.667724   8.327996
    29  H    6.512925   7.779148   6.277764   7.284198   7.596174
    30  H    6.229065   7.763142   6.470682   6.892937   7.545741
    31  H    3.931209   4.318398   3.733304   3.334662   2.644411
    32  H    3.194144   3.700408   2.476307   3.886895   3.806506
    33  H    2.281810   3.810718   3.164978   2.741353   3.750214
    34  H    3.071236   2.448406   2.513376   3.069208   2.510708
    35  H    4.788495   5.876055   4.684675   4.932232   4.972468
                   21         22         23         24         25
    21  H    0.000000
    22  H    5.998105   0.000000
    23  H    5.629920   1.782799   0.000000
    24  H    6.934491   1.782874   1.782153   0.000000
    25  H    6.777195   3.422411   3.878039   2.852776   0.000000
    26  H    5.423184   3.579310   4.165628   3.805020   1.770628
    27  H    6.301477   2.396702   3.582742   2.807420   1.778878
    28  H    8.865489   7.851306   7.731731   6.986399   4.570098
    29  H    8.440520   7.352676   6.858669   6.266162   4.437149
    30  H    8.306286   6.299383   6.206206   5.287589   3.035014
    31  H    3.811491   5.668169   4.572607   5.536176   5.244021
    32  H    4.318831   6.563424   5.803577   6.416303   5.288569
    33  H    4.097524   4.561005   4.467789   4.739970   3.202049
    34  H    2.456964   6.955917   6.200598   7.324664   6.756717
    35  H    6.008144   5.641571   4.814916   4.860976   3.743477
                   26         27         28         29         30
    26  H    0.000000
    27  H    1.763857   0.000000
    28  H    4.991182   6.152268   0.000000
    29  H    5.089570   6.143173   1.786833   0.000000
    30  H    3.931094   4.756860   1.791731   1.799291   0.000000
    31  H    4.696713   5.795013   6.324642   5.331557   5.739585
    32  H    4.542117   6.031834   5.275723   4.611746   5.151719
    33  H    1.975479   3.547655   4.941222   4.754650   4.289237
    34  H    5.634546   6.923984   7.611025   7.020738   7.372866
    35  H    3.913175   5.045325   3.878889   2.692211   3.177810
                   31         32         33         34         35
    31  H    0.000000
    32  H    1.762972   0.000000
    33  H    3.031141   2.651562   0.000000
    34  H    2.396025   2.438363   3.753635   0.000000
    35  H    2.711163   2.536193   2.925221   4.690643   0.000000
 Stoichiometry    C9H20N2O3S
 Framework group  C1[X(C9H20N2O3S)]
 Deg. of freedom    99
 Full point group                 C1      NOp   1
 Largest Abelian subgroup         C1      NOp   1
 Largest concise Abelian subgroup C1      NOp   1
                         Standard orientation:                         
 ---------------------------------------------------------------------
 Center     Atomic      Atomic             Coordinates (Angstroms)
 Number     Number       Type             X           Y           Z
 ---------------------------------------------------------------------
      1          6           0        1.429101   -0.908898   -0.497038
      2          6           0        0.909528    3.056302    1.110906
      3          6           0        2.989109    1.865460    0.271834
      4          6           0        2.359573   -3.088337    0.046198
      5          6           0        0.452005   -2.263562    1.383696
      6          6           0       -3.480367   -1.137661   -0.555484
      7          6           0        0.726542    1.505864   -0.924519
      8          6           0        0.362396    0.180082   -0.236895
      9          6           0        1.631015    2.472628   -0.118515
     10          7           0       -0.917470   -0.410175   -0.732110
     11          7           0        1.432380   -2.002803    0.332328
     12          8           0        2.219729   -0.797297   -1.431149
     13          8           0       -2.811600    1.411053   -0.513386
     14          8           0       -2.153435   -0.041576    1.451913
     15         16           0       -2.342629    0.128375    0.013378
     16          1           0        0.733734    2.298656    1.884463
     17          1           0        1.510848    3.849997    1.570302
     18          1           0       -0.062438    3.486285    0.841782
     19          1           0        2.875749    1.053788    1.001045
     20          1           0        3.515158    1.458034   -0.597155
     21          1           0        3.631424    2.626064    0.733116
     22          1           0        2.948537   -3.329462    0.939591
     23          1           0        3.028093   -2.770939   -0.751591
     24          1           0        1.821658   -3.992109   -0.272713
     25          1           0       -0.430846   -2.792066    1.001828
     26          1           0        0.116353   -1.345776    1.864348
     27          1           0        0.926504   -2.886734    2.147711
     28          1           0       -4.450791   -0.920063   -0.103358
     29          1           0       -3.562379   -1.094367   -1.643850
     30          1           0       -3.121112   -2.114427   -0.228855
     31          1           0        1.210281    1.270276   -1.879809
     32          1           0       -0.206208    2.030818   -1.156479
     33          1           0        0.235500    0.335371    0.833781
     34          1           0        1.835845    3.313792   -0.796458
     35          1           0       -0.989193   -0.308998   -1.743393
 ---------------------------------------------------------------------
 Rotational constants (GHZ):      0.5995902      0.4328027      0.3015801
 Standard basis: 6-31G(d) (6D, 7F)
 There are   269 symmetry adapted basis functions of A   symmetry.
 Integral buffers will be    131072 words long.
 Raffenetti 2 integral format.
 Two-electron integral symmetry is turned on.
   269 basis functions,   524 primitive gaussians,   269 cartesian basis functions
    64 alpha electrons       64 beta electrons
       nuclear repulsion energy      1299.8709636524 Hartrees.
 NAtoms=   35 NActive=   35 NUniq=   35 SFac= 1.00D+00 NAtFMM=   60 NAOKFM=F Big=F
 One-electron integrals computed using PRISM.
 NBasis=   269 RedAO= T  NBF=   269
 NBsUse=   269 1.00D-06 NBFU=   269
 Initial guess read from the read-write file.
 B after Tr=     0.000000    0.000000    0.000000
         Rot=    1.000000    0.000000    0.000000    0.000000 Ang=   0.00 deg.
 Initial guess orbital symmetries:
       Occupied  (A) (A) (A) (A) (A) (A) (A) (A) (A) (A) (A) (A)
                 (A) (A) (A) (A) (A) (A) (A) (A) (A) (A) (A) (A)
                 (A) (A) (A) (A) (A) (A) (A) (A) (A) (A) (A) (A)
                 (A) (A) (A) (A) (A) (A) (A) (A) (A) (A) (A) (A)
                 (A) (A) (A) (A) (A) (A) (A) (A) (A) (A) (A) (A)
                 (A) (A) (A) (A)
       Virtual   (A) (A) (A) (A) (A) (A) (A) (A) (A) (A) (A) (A)
                 (A) (A) (A) (A) (A) (A) (A) (A) (A) (A) (A) (A)
                 (A) (A) (A) (A) (A) (A) (A) (A) (A) (A) (A) (A)
                 (A) (A) (A) (A) (A) (A) (A) (A) (A) (A) (A) (A)
                 (A) (A) (A) (A) (A) (A) (A) (A) (A) (A) (A) (A)
                 (A) (A) (A) (A) (A) (A) (A) (A) (A) (A) (A) (A)
                 (A) (A) (A) (A) (A) (A) (A) (A) (A) (A) (A) (A)
                 (A) (A) (A) (A) (A) (A) (A) (A) (A) (A) (A) (A)
                 (A) (A) (A) (A) (A) (A) (A) (A) (A) (A) (A) (A)
                 (A) (A) (A) (A) (A) (A) (A) (A) (A) (A) (A) (A)
                 (A) (A) (A) (A) (A) (A) (A) (A) (A) (A) (A) (A)
                 (A) (A) (A) (A) (A) (A) (A) (A) (A) (A) (A) (A)
                 (A) (A) (A) (A) (A) (A) (A) (A) (A) (A) (A) (A)
                 (A) (A) (A) (A) (A) (A) (A) (A) (A) (A) (A) (A)
                 (A) (A) (A) (A) (A) (A) (A) (A) (A) (A) (A) (A)
                 (A) (A) (A) (A) (A) (A) (A) (A) (A) (A) (A) (A)
                 (A) (A) (A) (A) (A) (A) (A) (A) (A) (A) (A) (A)
                 (A)
 Harris functional with IExCor=  402 diagonalized for initial guess.
 ExpMin= 1.17D-01 ExpMax= 2.19D+04 ExpMxC= 3.30D+03 IAcc=3 IRadAn=         5 AccDes= 0.00D+00
 HarFok:  IExCor=  402 AccDes= 0.00D+00 IRadAn=         5 IDoV= 1
 ScaDFX=  1.000000  1.000000  1.000000  1.000000
 FoFCou: FMM=F IPFlag=           0 FMFlag=      100000 FMFlg1=           0
         NFxFlg=           0 DoJE=T BraDBF=F KetDBF=T FulRan=T
         Omega=  0.000000  0.000000  1.000000  0.000000  0.000000 ICntrl=     500 IOpCl=  0
         NMat0=    1 NMatS0=    1 NMatT0=    0 NMatD0=    1 NMtDS0=    0 NMtDT0=    0
         I1Cent=           4 NGrid=           0.
 Petite list used in FoFCou.
 Requested convergence on RMS density matrix=1.00D-08 within 128 cycles.
 Requested convergence on MAX density matrix=1.00D-06.
 Requested convergence on             energy=1.00D-06.
 No special actions if energy rises.
 Integral accuracy reduced to 1.0D-05 until final iterations.
 Initial convergence to 1.0D-05 achieved.  Increase integral accuracy.
 SCF Done:  E(RB3LYP) =  -1088.31078428     A.U. after   12 cycles
             Convg  =    0.6823D-08             -V/T =  2.0074
 Calling FoFJK, ICntrl=      2127 FMM=F ISym2X=0 I1Cent= 0 IOpClX= 0 NMat=1 NMatS=1 NMatT=0.
 ***** Axes restored to original set *****
 -------------------------------------------------------------------
 Center     Atomic                   Forces (Hartrees/Bohr)
 Number     Number              X              Y              Z
 -------------------------------------------------------------------
      1        6          -0.005546434    0.000734448    0.001647562
      2        6           0.000157584   -0.000921484   -0.000083815
      3        6           0.001170339   -0.000991568    0.000272134
      4        6          -0.001008899   -0.001192010   -0.000117220
      5        6           0.000156956   -0.001824175    0.001769436
      6        6          -0.003054043   -0.000774438   -0.002760533
      7        6           0.003325710   -0.001879858   -0.000703439
      8        6          -0.000350208   -0.001861068   -0.000829550
      9        6          -0.000715617    0.001419731    0.000482556
     10        7          -0.001046646   -0.000669821    0.004317920
     11        7           0.002746521    0.002247054    0.000383937
     12        8           0.001070014   -0.000394029   -0.001084394
     13        8           0.006199562   -0.001779316   -0.001167222
     14        8          -0.000442633    0.002995494    0.008220584
     15       16          -0.002523348    0.000652452   -0.006667428
     16        1          -0.000339805    0.000208486   -0.000227892
     17        1          -0.000337695   -0.000120586    0.000166622
     18        1          -0.000232592   -0.000212716   -0.000061144
     19        1          -0.000413249    0.000241131   -0.000002476
     20        1          -0.000306683    0.000578978   -0.000532853
     21        1           0.000066335    0.000616722   -0.000332113
     22        1          -0.000210060    0.000611021   -0.000358000
     23        1           0.000159402   -0.000405262   -0.000229949
     24        1           0.000084521    0.000279578    0.000242025
     25        1          -0.000280023   -0.000508384   -0.000082984
     26        1          -0.000319548    0.000405256   -0.001274471
     27        1          -0.000294385    0.000080550    0.000211458
     28        1           0.001012441   -0.000177787    0.000394046
     29        1          -0.000045240    0.000042871   -0.000190927
     30        1           0.000248742   -0.000175796    0.000003131
     31        1          -0.000770904    0.000667144    0.000691471
     32        1           0.000484279    0.001576420    0.000146379
     33        1          -0.000170544    0.001372061   -0.000142386
     34        1          -0.000252082   -0.000212706   -0.000656758
     35        1           0.001778231   -0.000628392   -0.001443706
 -------------------------------------------------------------------
 Cartesian Forces:  Max     0.008220584 RMS     0.001721635

 GradGradGradGradGradGradGradGradGradGradGradGradGradGradGradGradGradGrad
[...]
 ,-0.00766503,-0.03834520,0.05219486,-0.00040435,0.00009448,-0.00000536
 ,-0.00002718,0.00000325,0.00001277,-0.00001894,0.00000258,-0.00000574,
 0.00007401,-0.00004154,-0.00000539,0.00003079,0.00023554,0.00002233,0.
 11012138,-0.01818125,-0.09727018,-0.00006173,-0.00007423,0.00016001,0.
 00039667,-0.00003809,-0.00006824,0.00004670,-0.00000907,-0.00000458,0.
 00058580,-0.00042396,-0.00039501,0.00016916,-0.00007800,-0.00002070,0.
 00011509,-0.00011180,-0.00003916,-0.00678682,0.00223335,-0.00247289,0.
 00224981,0.00015662,-0.00033285,-0.02106612,0.00310508,0.01023047,0.00
 000954,-0.00000436,-0.00000521,0.00000436,0.00000038,-0.00000741,0.000
 01408,0.00000778,0.00000219,0.00000685,-0.00000473,-0.00000627,-0.0000
 0061,0.00000271,-0.00000121,0.00000614,0.00000204,-0.00000582,0.000001
 74,0.00000919,-0.00000623,-0.00001529,-0.00001492,0.00000784,0.0000087
 6,0.00001536,-0.00000102,0.00015762,0.00001449,-0.00003942,-0.00019155
 ,-0.00003169,-0.00020083,-0.00000490,-0.00008548,0.00006040,0.01167095
 ,-0.00390982,-0.00496013,0.01892477,-0.00069949,-0.00665378,-0.1159076
 9,0.01809923,0.10199640,-0.00054981,0.00447604,0.00123820,-0.00059442,
 0.00037163,-0.00252202,0.00015248,0.00043657,0.00056030,-0.00011775,-0
 .00018758,-0.00005495,0.00004856,0.00066281,-0.00016446,0.00001766,-0.
 00001455,-0.00003577,-0.04956266,-0.02445527,-0.00726860,0.00057134,0.
 03232822,0.00981689,-0.00230103,-0.01130997,-0.00360708,-0.00005370,-0
 .00107402,0.00081945,0.00129044,-0.00114938,-0.00075939,-0.00052770,-0
 .00268597,-0.00042458,0.00019080,-0.00008061,0.00016180,0.00019852,0.0
 0010184,-0.00041633,-0.00044343,0.00010848,0.00045994,0.00008624,-0.00
 018996,-0.00018514,0.00006310,-0.00069188,-0.00051517,0.00019435,0.000
 44500,0.00001366,-0.00001546,0.00005455,0.00006879,0.00024110,0.000077
 51,0.00007121,-0.00015316,-0.00005100,0.00006858,0.00007461,-0.0000231
 1,-0.00004870,-0.00014152,-0.00005698,0.00009366,0.00005949,0.00001379
 ,0.00002941,-0.00005074,-0.00023355,0.00008257,-0.00000382,-0.00025395
 ,0.00011871,0.00003287,-0.00016166,-0.00002258,-0.00000411,0.00000496,
 -0.00000854,0.00000069,-0.00000036,-0.00000353,0.00000978,0.00000110,0
 .00000502,0.05762190,-0.00138076,-0.00388893,0.00029202,-0.00032993,0.
 00122079,0.00005574,0.00019690,0.00054538,0.00017300,-0.00004876,-0.00
 001291,-0.00001015,-0.00000912,-0.00019506,0.00010169,0.00001577,0.000
 01480,0.00003206,-0.02160467,-0.28732974,-0.07099685,0.00284198,-0.015
 71663,-0.00569419,-0.00029972,0.00053274,0.00040653,0.00025591,0.00095
 677,0.00019209,0.00010041,0.00021109,0.00000169,-0.00391063,0.00195104
 ,0.00101132,0.00002063,0.00013488,0.00026511,0.00004406,0.00012459,0.0
 0044201,-0.00024403,-0.00040720,-0.00057561,0.00006239,0.00012050,0.00
 014354,0.00013665,0.00000329,-0.00002396,0.00015413,0.00010224,0.00005
 487,-0.00005121,-0.00000607,0.00007417,0.00020682,0.00015274,-0.000254
 40,0.00001053,0.00013810,-0.00003378,-0.00000081,0.00003446,-0.0000003
 4,0.00002242,0.00003936,-0.00001934,0.00000799,0.00000264,-0.00000907,
 0.00005854,0.00004242,-0.00003567,0.00005962,0.00014522,-0.00007310,0.
 00003275,0.00003657,-0.00002289,0.00000029,-0.00000062,0.00000334,0.00
 001509,-0.00000597,0.00001659,-0.00000364,0.00000297,-0.00000089,0.022
 51602,0.31342913,0.00027454,-0.00187292,0.00002016,-0.00221837,0.00200
 087,-0.00567393,-0.00011228,-0.00122528,0.00142321,0.00007808,0.000080
 93,0.00001597,0.00002688,-0.00014132,0.00002975,-0.00006669,-0.0000392
 2,0.00003304,-0.00558608,-0.06838180,-0.07203583,0.00110578,0.00290513
 ,0.00018949,-0.00359624,-0.03106020,-0.00995544,0.00003329,-0.00003914
 ,0.00104587,-0.00031982,0.00028941,0.00034188,-0.00076887,0.00093143,-
 0.00059048,-0.00023355,0.00006346,-0.00028230,-0.00007947,0.00000301,-
 0.00009290,0.00083964,0.00008368,0.00029961,0.00023259,0.00005049,0.00
 004396,-0.00054081,-0.00190179,-0.00061135,-0.00017076,0.00012440,0.00
 025019,-0.00000095,0.00010330,-0.00004789,0.00041160,0.00080210,-0.000
 48115,-0.00013876,0.00024640,0.00033810,-0.00003366,-0.00000143,0.0000
 2504,0.00003360,0.00000434,-0.00002194,-0.00003308,-0.00000238,-0.0000
 0974,-0.00001014,0.00003472,-0.00001147,-0.00001213,0.00001875,-0.0000
 0448,-0.00003895,0.00005595,0.00002703,0.00001091,-0.00000899,0.000017
 47,-0.00000884,0.00000531,-0.00000950,-0.00001364,-0.00000194,-0.00001
 201,0.01085746,0.07652133,0.07720612,-0.00250599,0.00453505,-0.0011249
 3,0.00046459,0.00039942,-0.00035168,-0.00050839,-0.00040959,-0.0023989
 8,-0.00004710,0.00047941,0.00025392,0.00002154,-0.00053686,-0.00002272
 ,0.00018418,0.00004259,-0.00007165,-0.15859417,-0.07541656,0.10273625,
 -0.02425809,-0.01388191,0.01650970,0.00812018,0.00532382,-0.00840709,0
 .00390050,-0.00088131,0.00109001,-0.00156695,-0.00117014,0.00053209,-0
 .00008075,-0.00006882,0.00030274,0.00104482,-0.00088562,0.00057796,0.0
 0045398,-0.00000746,-0.00008861,-0.00283314,0.00152224,-0.00083533,-0.
 00004641,-0.00008052,0.00004099,0.00012002,0.00021875,-0.00002943,0.00
 014362,0.00010837,0.00010592,0.00011056,-0.00005259,-0.00023111,-0.000
 19132,-0.00002525,0.00007997,0.00044080,0.00025683,-0.00062017,-0.0001
 8989,-0.00008661,0.00006575,0.00006663,0.00001213,-0.00003950,-0.00011
 933,-0.00003505,0.00000157,-0.00009787,0.00007579,0.00000562,0.0000564
 4,-0.00007289,0.00003565,-0.00004945,0.00010054,0.00003872,-0.00002066
 ,0.00001473,-0.00001945,0.00002109,-0.00002115,0.00001485,0.00004260,-
 0.00001108,0.00004139,-0.00152111,-0.00102252,0.00038911,0.17697926,0.
 00184848,-0.00477127,0.00074095,0.00058433,0.00055907,-0.00101916,0.00
 013076,0.00051290,-0.00044010,0.00010073,-0.00015423,-0.00019618,-0.00
 002558,0.00015777,0.00003014,-0.00005106,-0.00001136,0.00002416,-0.077
 56969,-0.10416726,0.07062558,0.01451716,0.00650928,-0.00858366,0.00096
 792,-0.00009848,-0.00161724,-0.00071331,0.00091186,-0.00115598,0.00062
 358,0.00090874,-0.00026154,-0.00185158,0.00168611,-0.00003244,-0.00017
 094,-0.00070036,0.00026574,-0.00007013,-0.00032304,-0.00022786,0.00101
 743,0.00007157,0.00079501,-0.00000337,-0.00002286,-0.00004074,0.000135
 44,0.00002337,0.00008643,-0.00010602,0.00021633,-0.00007774,-0.0001476
 2,0.00002402,0.00022381,0.00016495,0.00026034,-0.00023676,-0.00001079,
 0.00034830,0.00011747,0.00006996,0.00007738,-0.00002360,0.00000291,0.0
 0002994,-0.00000586,0.00000845,0.00000458,-0.00000663,0.00000845,0.000
 00664,-0.00000915,-0.00002646,0.00003639,0.00002086,0.00000991,0.00000
 284,-0.00000907,-0.00000320,-0.00001509,0.00000661,-0.00002918,0.00001
 625,-0.00002312,-0.00000283,0.00000076,-0.00001708,-0.02014249,-0.0125
 0236,0.02037002,0.08165167,0.11023561,-0.00160758,0.00001178,-0.000088
 50,0.00153639,0.00103375,0.00098501,-0.00463602,-0.00104242,-0.0045886
 6,-0.00003633,0.00008134,0.00006878,0.00000359,-0.00005749,-0.00002593
 ,0.00004408,-0.00006952,-0.00013426,0.10667395,0.07062124,-0.14346185,
 -0.00369009,-0.00076296,-0.00001084,0.01988449,0.01397707,-0.02227689,
 -0.00132481,-0.00071725,0.00130261,-0.00024706,-0.00022068,0.00026134,
 -0.00046763,0.00012249,0.00021689,0.00025619,0.00013094,-0.00108830,-0
 .00006881,0.00004955,-0.00027135,-0.00081478,0.00080488,0.00097460,-0.
 00011725,-0.00011118,-0.00002240,-0.00023285,0.00019123,0.00058090,-0.
 00079435,-0.00109317,0.00007806,0.00006713,-0.00021064,0.00015542,-0.0
 0018052,-0.00003549,0.00029866,0.00113389,0.00083280,-0.00149461,-0.00
 006058,-0.00000546,0.00002200,0.00000573,0.00000393,-0.00002154,-0.000
 01104,-0.00001117,0.00000596,-0.00000363,0.00001210,-0.00000043,0.0000
 0152,0.00000203,-0.00000900,-0.00001923,0.00002219,0.00000828,0.000024
 44,0.00000632,-0.00000147,0.00000752,-0.00001293,-0.00000371,0.0000269
 8,-0.00001268,0.00005230,-0.00707624,-0.00381287,0.00686754,-0.1082575
 3,-0.07965749,0.16032615,0.00534004,-0.01961036,-0.01585229,-0.0006770
 2,0.00021508,-0.00018326,0.00008144,-0.00017012,-0.00036913,0.00001903
 ,-0.00005178,0.00035287,-0.00292105,-0.00007601,0.00060227,-0.00002341
 ,-0.00026459,-0.00019485,-0.00061139,0.02805154,0.01326347,-0.05100714
 ,0.00530593,0.00296444,0.00146995,-0.00004657,0.00037779,-0.00034994,-
 0.00450253,-0.00259236,0.00016363,0.00125720,0.00082089,-0.00372085,-0
 .00463246,0.00302554,0.00008829,-0.00007275,-0.00019142,-0.00075172,-0
 .00041009,-0.00011346,0.00144058,0.00065849,0.00125247,-0.00036120,-0.
 00073245,-0.00126151,0.00037774,-0.00031343,0.00002854,-0.00011670,-0.
 00005950,0.00001490,0.00002109,0.00010612,-0.00004769,-0.00009881,-0.0
 0007964,0.00013131,0.00003262,0.00004948,-0.00007827,-0.00001520,-0.00
 002691,0.00005641,0.00018473,0.00013454,-0.00009812,0.00009035,0.00008
 948,-0.00004737,0.00023852,0.00032526,-0.00017204,-0.00446650,0.002080
 69,-0.00003131,-0.00002695,0.00018757,0.00004494,0.00001848,0.00000516
 ,0.00004765,-0.00007363,0.00004364,-0.00006132,-0.00001968,0.00000820,
 -0.00004601,-0.00557345,0.00219974,-0.00044959,0.00042927,-0.00058282,
 0.00036082,0.06084227,0.00345277,-0.01562354,-0.00821539,0.00006972,-0
 .00007972,-0.00025965,0.00028850,-0.00022799,-0.00003313,-0.00003153,-
 0.00001590,0.00025111,0.00174344,-0.00057321,0.00011353,0.00010753,-0.
 00029919,-0.00044772,0.00233964,-0.01148242,-0.00442819,0.00211712,-0.
 26143105,-0.12220301,-0.00034372,-0.00016596,-0.00081929,0.00037006,0.
 00927278,0.00254510,-0.00018642,0.00022834,0.00076856,-0.00353614,-0.0
 0190838,0.00138164,-0.00001224,-0.00024929,-0.00009038,-0.00007046,-0.
 00305190,0.00151390,-0.00085447,0.00061041,0.00251979,-0.00069629,0.00
 064625,-0.00027011,-0.00019325,0.00022131,0.00004423,-0.00012830,-0.00
 000351,0.00003947,-0.00027100,-0.00005537,0.00030763,-0.00007074,0.000
 16393,-0.00007438,-0.00011178,0.00011099,0.00005326,-0.00001588,-0.000
 00436,0.00002248,0.00016733,0.00000820,-0.00010592,0.00007857,0.000095
 98,-0.00007798,0.00029658,0.00025211,-0.00014237,0.00284963,0.00090308
 ,-0.00052383,0.00010255,0.00016659,-0.00016897,-0.00001775,0.00003444,
 0.00000226,-0.00013651,0.00011851,-0.00017675,0.00000541,0.00000299,0.
 00000274,0.00188629,-0.00019302,-0.00014839,0.00014892,0.00031506,-0.0
 0008311,-0.00902591,0.28253339,-0.00210154,0.00869138,0.00776982,-0.00
 084133,0.00022728,-0.00014383,-0.00008768,0.00013431,0.00006981,-0.000
 17279,0.00012142,-0.00001567,0.00086911,-0.00073472,0.00058352,-0.0001
 4484,0.00023983,0.00026908,0.00067735,0.00306639,0.00360932,0.00297143
 ,-0.11101446,-0.10938156,-0.00005610,0.00038510,0.00027695,-0.00013549
 ,-0.02792936,-0.02699306,-0.00026479,-0.00033679,-0.00029722,0.0019969
 2,0.00286213,-0.00122946,0.00005978,0.00127498,0.00018746,-0.00047985,
 0.00097439,0.00323285,0.00055226,-0.00684426,-0.00462790,-0.00095143,-
 0.00054054,-0.00081820,0.00026562,0.00001915,-0.00004683,0.00021175,-0
 .00004079,0.00000454,0.00011596,0.00009847,-0.00012800,0.00001240,-0.0
 0009371,0.00005676,0.00006557,-0.00008811,-0.00002479,0.00001288,-0.00
 000621,-0.00002858,-0.00002138,-0.00002239,0.00001934,0.00000083,-0.00
 003974,-0.00001172,0.00016446,0.00004747,-0.00010322,0.00066703,0.0001
 6726,0.00062529,0.00025554,0.00004280,-0.00023621,0.00004746,0.0000660
 3,0.00002496,0.00015235,-0.00003600,0.00024365,-0.00000493,-0.00000027
 ,-0.00002501,-0.00091519,0.00105443,0.00037648,-0.00005592,-0.00005856
 ,0.00004384,-0.00129241,0.12599612,0.13286473,0.00052285,0.00016934,0.
 00013240,0.00736724,-0.00545358,-0.00076323,-0.01907939,0.00984927,0.0
 0323143,0.00007736,0.00008487,-0.00000543,0.00003384,-0.00011032,0.000
 00311,0.00008998,0.00014640,-0.00005466,-0.01351024,0.00748375,-0.0014
 6173,0.00178030,-0.00120037,-0.00230332,-0.22689649,0.11237306,0.00984
 399,-0.00089175,0.00101886,-0.00099977,-0.00019282,-0.00005037,-0.0000
 5345,-0.00012083,-0.00017705,-0.00008044,0.00024133,0.00009328,-0.0001
 6990,0.00006234,0.00021650,-0.00002027,-0.00058238,-0.00089811,0.00039
 337,0.00097887,-0.00234743,-0.00065162,0.00062769,0.00052108,0.0004843
 2,0.00061576,0.00071605,0.00003388,-0.00120209,-0.00261127,0.00312290,
 0.00026280,-0.00023022,-0.00051605,0.00126131,0.00002480,0.00005131,-0
 .00000492,-0.00000929,0.00001634,0.00002584,0.00001284,0.00000567,-0.0
 0003753,-0.00000075,-0.00001387,-0.00002672,0.00001612,-0.00001229,0.0
 0000271,-0.00002524,-0.00000012,0.00000050,0.00000340,0.00002221,-0.00
 003916,0.00001641,-0.00004657,-0.00000049,-0.00000622,0.00001784,0.000
 01510,-0.00001353,0.00000786,0.00011216,-0.00048068,0.00024872,0.00076
 046,0.00007468,-0.00012506,0.00024683,-0.00013521,0.00013374,0.2474498
 9,0.00003266,-0.00015202,0.00019757,0.02668240,-0.02122803,-0.00293709
 ,-0.01397827,0.00780229,0.00214946,-0.00000242,-0.00000401,0.00001113,
 -0.00000613,-0.00007052,0.00001301,-0.00000575,0.00003697,0.00003656,-
 0.00064264,0.00014408,-0.00028183,-0.00052681,0.00079850,-0.00019593,0
 .11222565,-0.11845170,-0.00596730,0.00003214,0.00015861,0.00003995,0.0
 0002028,0.00005030,-0.00009204,0.00003622,0.00010448,-0.00007993,-0.00
 008951,0.00005518,0.00008840,0.00001974,0.00007235,0.00022727,0.000070
 84,-0.00018353,-0.00035733,-0.00225606,-0.00581828,-0.00196652,-0.0001
 2397,0.00147843,-0.00012871,-0.00004294,0.00098740,0.00073557,-0.00246
 284,-0.00056190,0.00243020,0.00032781,0.00069592,-0.00068223,0.0005112
 9,0.00048340,-0.00071631,0.00001495,-0.00000577,0.00000116,0.00000237,
 0.00001177,0.00001007,0.00000355,0.00000370,-0.00000664,0.00000476,0.0
 0001693,0.00000450,-0.00000741,0.00000587,-0.00003302,-0.00001101,-0.0
 0000353,0.00001232,-0.00000025,0.00000023,-0.00000511,0.00001183,-0.00
 000176,0.00001155,-0.00000578,0.00000075,-0.00000405,-0.00049867,0.000
 81778,0.00027743,0.00016922,-0.00019289,0.00014507,-0.00034135,0.00007
 551,-0.00015854,-0.11918449,0.13288324,0.00066332,0.00085303,-0.000599
 50,0.00777980,-0.00620201,-0.00080475,0.02194306,-0.01161799,-0.003463
 81,-0.00002986,0.00009245,-0.00000402,0.00001244,-0.00001986,-0.000092
 82,0.00014886,0.00022754,-0.00007723,-0.03000315,0.01636429,-0.0034544
 5,0.00004971,-0.00174738,-0.00460206,0.00977057,-0.00595170,-0.0479687
 8,-0.00160355,0.00176770,-0.00191983,-0.00035474,-0.00017168,0.0004095
 1,-0.00017808,-0.00041516,0.00018373,0.00032481,0.00011868,-0.00016713
 ,0.00006856,0.00031988,0.00005749,-0.00091419,-0.00134971,0.00042883,-
 0.00044667,-0.00204546,0.00009923,0.00055142,0.00022118,0.00014987,-0.
 00043319,0.00038356,0.00024360,0.00337123,0.00229290,-0.00294062,-0.00
 075786,0.00009152,0.00067915,-0.00038675,-0.00077448,0.00076209,-0.000
 06573,-0.00000500,0.00002347,0.00000657,-0.00001759,-0.00003438,-0.000
 01883,-0.00001880,0.00001807,-0.00000969,0.00001037,0.00001676,0.00000
 826,-0.00004849,-0.00002923,-0.00005088,0.00002392,0.00003431,-0.00006
 109,0.00002798,-0.00007882,0.00000476,-0.00000682,0.00002673,0.0000240
 4,-0.00001427,0.00000826,0.00021780,-0.00012986,0.00147630,0.00044920,
 0.00035163,0.00113401,0.00033020,0.00002712,0.00005863,-0.01054940,0.0
 0721457,0.06032195,-0.00006624,0.00227661,0.00198240,0.00002054,-0.000
 12282,0.00013127,0.00024753,0.00011684,0.00009410,0.00006012,-0.000026
 14,0.00013128,0.00034698,0.00033835,0.00009523,-0.00066514,0.00061529,
 0.00060992,0.00060808,-0.00137062,0.00010804,0.00117720,-0.00620755,-0
 .00921984,-0.00024174,-0.00007750,-0.00023697,-0.04178538,0.09889061,0
 .07726973,-0.00027686,-0.00035358,-0.00013701,-0.00053126,-0.00096102,
 -0.00133727,-0.00022266,0.00357119,0.00056613,0.00071266,-0.00488579,0
 .00019103,-0.00025493,-0.02079126,-0.00810993,-0.00002722,0.00009960,0
 .00004968,0.00001051,0.00011168,0.00008295,-0.00002438,-0.00003934,-0.
 00002518,-0.00008466,0.00003281,0.00008579,0.00003694,-0.00004906,-0.0
 0001028,-0.00009638,-0.00005401,0.00013721,-0.00000840,-0.00003945,-0.
 00005668,-0.00003531,-0.00002980,0.00005797,-0.00009078,0.00001585,0.0
 0001035,-0.00002585,-0.00003983,0.00002420,0.00009410,-0.00021860,-0.0
 0017563,-0.00007026,-0.00014444,-0.00000792,-0.00006911,-0.00024318,-0
 .00037726,0.00029378,0.00002891,-0.00051592,-0.00004066,0.00032906,-0.
 00011727,0.00064777,0.00042782,-0.00010953,-0.00072991,-0.00040973,-0.
 00025532,-0.00027020,-0.00018648,-0.00170677,0.00004965,0.00002057,0.0
 0013905,0.04131149,0.00042459,0.00341950,0.00040853,0.00000432,0.00002
 748,-0.00001895,0.00002641,0.00007182,0.00006644,0.00002045,0.00006047
 ,0.00000238,0.00013985,0.00006055,-0.00003705,-0.00088143,0.00018545,0
 .00116526,0.00004386,0.00193710,0.00131189,-0.00007372,0.00820651,0.00
 666311,0.00012706,-0.00048039,-0.00006410,0.06073120,-0.27256949,-0.16
 293555,-0.00010006,-0.00048031,-0.00011289,0.00014817,-0.00150173,-0.0
 0120320,0.00084343,0.00492810,0.00053274,-0.00277955,-0.00419273,0.001
 36737,0.01180965,-0.02363678,-0.01890789,-0.00000173,-0.00007305,-0.00
 003574,0.00004530,-0.00002446,0.00000552,0.00000480,-0.00000592,-0.000
 00875,0.00003480,-0.00000878,-0.00001929,0.00000314,-0.00003604,0.0000
 2076,-0.00000087,-0.00003751,0.00002858,-0.00001104,-0.00002750,-0.000
 00309,-0.00003170,-0.00002769,0.00003213,-0.00002466,-0.00000671,0.000
 00360,0.00001867,-0.00005886,-0.00000352,-0.00003148,-0.00015098,0.000
 01858,0.00000622,-0.00005243,0.00000961,0.00008302,0.00012258,0.000326
 79,0.00048024,-0.00014511,0.00097408,-0.00021117,0.00011408,-0.0002543
 6,-0.00022382,-0.00050101,-0.00014763,-0.00039357,0.00004408,-0.000132
 21,0.00028118,-0.00039505,0.00247553,0.00011343,-0.00000973,0.00014793
 ,-0.07062500,0.28524451,-0.00003643,-0.00344398,-0.00111004,0.00019708
 ,-0.00022375,0.00006873,0.00023162,-0.00002926,0.00004477,0.00006558,0
 .00001183,0.00006365,-0.00006921,0.00002024,0.00011418,-0.00000514,-0.
 00038181,-0.00060024,0.00123856,-0.00084636,0.00264552,0.00891373,-0.0
 2773733,-0.02193891,0.00007216,-0.00002899,-0.00025481,0.05363427,-0.1
 5474798,-0.17779661,-0.00006549,0.00043085,0.00021630,-0.00045712,0.00
 153991,0.00119814,0.00081231,0.00050038,-0.00157500,0.00181697,0.00502
 387,0.00125320,-0.00427891,0.00702804,0.01079338,-0.00009609,0.0001692
 6,0.00006880,-0.00004158,0.00013242,0.00006096,-0.00005625,0.00001078,
 -0.00000549,-0.00010556,0.00001550,0.00005089,-0.00002942,0.00003707,-
 0.00002932,-0.00006474,0.00000294,0.00008821,-0.00002401,0.00001995,0.
 00000126,0.00006467,0.00002590,-0.00002687,0.00000546,0.00002281,-0.00
 001651,0.00003191,0.00008195,-0.00002184,-0.00013635,0.00014555,-0.000
 11413,-0.00004808,0.00001772,0.00001265,-0.00000650,-0.00029473,-0.000
 33485,-0.00045032,0.00055665,-0.00088565,0.00014093,0.00003770,-0.0000
 0851,-0.00065518,0.00085144,-0.00018681,-0.00071732,0.00004156,0.00011
 737,-0.00059210,0.00267966,-0.00620578,0.00007808,0.00000679,0.0001054
 1,-0.05936754,0.16832342,0.19420796\\0.00000535,0.00001424,0.00000345,
 -0.00000242,-0.00000005,0.00000011,-0.00000352,0.00000109,-0.00000008,
 -0.00001076,-0.00000415,0.00000413,-0.00000310,0.00000202,-0.00000051,
 -0.00000610,0.00000893,-0.00000300,-0.00000636,0.00000341,0.00000858,-
 0.00000500,0.00000711,-0.00001016,0.00000238,-0.00000119,-0.00000346,0
 .00001614,-0.00000116,0.00000265,0.00000093,-0.00000119,-0.00000129,0.
 00000015,-0.00001055,-0.00000283,0.00000834,-0.00000421,-0.00000589,-0
 .00000194,0.00000225,0.00000555,-0.00001054,-0.00001197,0.00000252,0.0
 0000067,0.00000065,-0.00000072,0.00000029,-0.00000049,-0.00000055,0.00
 000080,0.00000040,0.00000013,0.00000033,-0.00000004,0.00000084,0.00000
 023,-0.00000095,0.00000117,-0.00000030,-0.00000118,0.,0.00000248,0.000
 00053,-0.00000076,0.00000070,0.00000320,-0.00000099,0.00000215,-0.0000
 0060,-0.00000070,0.00000059,0.00000188,0.00000036,0.00000018,-0.000000
 88,0.00000134,0.00000126,0.00000113,-0.00000127,0.00000005,-0.00000253
 ,-0.00000068,0.00000463,-0.00000235,0.00000293,0.00000045,0.00000023,-
 0.00000167,0.00000163,-0.00000053,-0.00000168,-0.00000046,-0.00000215,
 -0.00000308,0.00000313,-0.00000471,0.00000071,0.00000133,-0.00000048,0
 .00000136,-0.00000369,0.00000430,0.00000347\\\@


 IT IS BETTER TO THINK YOU ARE HALF DRY THAN TO KNOW YOU
 ARE ALL WET.  -- SNOOPY
 Job cpu time:  0 days  3 hours 18 minutes 49.9 seconds.
 File lengths (MBytes):  RWF=    332 Int=      0 D2E=      0 Chk=      6 Scr=      1
 Normal termination of Gaussian 09 at Fri Feb 16 22:22:10 2018.
