 Entering Gaussian System, Link 0=g09
 Initial command:
 /home/fb_chem/chemsoft/lx24-amd64/Gaussian_09_C.01_NBO_3.1_64_istanbul-64/g09/l1.exe /local/2397317.1.parallel_long/Gau-3007.inp -scrdir=/local/2397317.1.parallel_long/
 Entering Link 1 = /home/fb_chem/chemsoft/lx24-amd64/Gaussian_09_C.01_NBO_3.1_64_istanbul-64/g09/l1.exe PID=      3008.
  
 Copyright (c) 1988,1990,1992,1993,1995,1998,2003,2009,2011,
            Gaussian, Inc.  All Rights Reserved.
  
 This is part of the Gaussian(R) 09 program.  It is based on
 the Gaussian(R) 03 system (copyright 2003, Gaussian, Inc.),
 the Gaussian(R) 98 system (copyright 1998, Gaussian, Inc.),
 the Gaussian(R) 94 system (copyright 1995, Gaussian, Inc.),
 the Gaussian 92(TM) system (copyright 1992, Gaussian, Inc.),
 the Gaussian 90(TM) system (copyright 1990, Gaussian, Inc.),
 the Gaussian 88(TM) system (copyright 1988, Gaussian, Inc.),
 the Gaussian 86(TM) system (copyright 1986, Carnegie Mellon
 University), and the Gaussian 82(TM) system (copyright 1983,
 Carnegie Mellon University). Gaussian is a federally registered
 trademark of Gaussian, Inc.
  
 This software contains proprietary and confidential information,
 including trade secrets, belonging to Gaussian, Inc.
  
 This software is provided under written license and may be
 used, copied, transmitted, or stored only in accord with that
 written license.
  
 The following legend is applicable only to US Government
 contracts under FAR:
  
                    RESTRICTED RIGHTS LEGEND
  
 Use, reproduction and disclosure by the US Government is
 subject to restrictions as set forth in subparagraphs (a)
 and (c) of the Commercial Computer Software - Restricted
 Rights clause in FAR 52.227-19.
  
 Gaussian, Inc.
 340 Quinnipiac St., Bldg. 40, Wallingford CT 06492
  
  
 ---------------------------------------------------------------
 Warning -- This program may not be used in any manner that
 competes with the business of Gaussian, Inc. or will provide
 assistance to any competitor of Gaussian, Inc.  The licensee
 of this program is prohibited from giving any competitor of
 Gaussian, Inc. access to this program.  By using this program,
 the user acknowledges that Gaussian, Inc. is engaged in the
 business of creating and licensing software in the field of
 computational chemistry and represents and warrants to the
 licensee that it is not a competitor of Gaussian, Inc. and that
 it will not use this program in any manner prohibited above.
 ---------------------------------------------------------------
  

 Cite this work as:
 Gaussian 09, Revision C.01,
 M. J. Frisch, G. W. Trucks, H. B. Schlegel, G. E. Scuseria, 
 M. A. Robb, J. R. Cheeseman, G. Scalmani, V. Barone, B. Mennucci, 
 G. A. Petersson, H. Nakatsuji, M. Caricato, X. Li, H. P. Hratchian, 
 A. F. Izmaylov, J. Bloino, G. Zheng, J. L. Sonnenberg, M. Hada, 
 M. Ehara, K. Toyota, R. Fukuda, J. Hasegawa, M. Ishida, T. Nakajima, 
 Y. Honda, O. Kitao, H. Nakai, T. Vreven, J. A. Montgomery, Jr., 
 J. E. Peralta, F. Ogliaro, M. Bearpark, J. J. Heyd, E. Brothers, 
 K. N. Kudin, V. N. Staroverov, T. Keith, R. Kobayashi, J. Normand, 
 K. Raghavachari, A. Rendell, J. C. Burant, S. S. Iyengar, J. Tomasi, 
 M. Cossi, N. Rega, J. M. Millam, M. Klene, J. E. Knox, J. B. Cross, 
 V. Bakken, C. Adamo, J. Jaramillo, R. Gomperts, R. E. Stratmann, 
 O. Yazyev, A. J. Austin, R. Cammi, C. Pomelli, J. W. Ochterski, 
 R. L. Martin, K. Morokuma, V. G. Zakrzewski, G. A. Voth, 
 P. Salvador, J. J. Dannenberg, S. Dapprich, A. D. Daniels, 
 O. Farkas, J. B. Foresman, J. V. Ortiz, J. Cioslowski, 
 and D. J. Fox, Gaussian, Inc., Wallingford CT, 2010.
 
 ******************************************
 Gaussian 09:  AM64L-G09RevC.01 23-Sep-2011
                16-Feb-2018 
 ******************************************
 %nprocs=4
 Will use up to    4 processors via shared memory.
 %chk=frag7-conf2.chk
 ---------------------------------------------------------
 #B3LYP/6-31G* Integral=(Grid=UltraFine) freq Opt pop=none
 ---------------------------------------------------------
 1/14=-1,18=20,19=15,26=3,38=1/1,3;
 2/9=110,12=2,17=6,18=5,40=1/2;
 3/5=1,6=6,7=1,11=2,16=1,25=1,30=1,71=1,74=-5,75=-5/1,2,3;
 4//1;
 5/5=2,38=5/2;
 7//1,2,3,16;
 1/14=-1,18=20,19=15/3(2);
 2/9=110/2;
 99//99;
 2/9=110/2;
 3/5=1,6=6,7=1,11=2,16=1,25=1,30=1,71=1,74=-5,75=-5/1,2,3;
 4/5=5,16=3/1;
 5/5=2,38=5/2;
 7//1,2,3,16;
 1/14=-1,18=20,19=15/3(-5);
 2/9=110/2;
 99/9=1/99;
 ----------------------------
 Optimization for frag7-conf2
 ----------------------------
 Charge =  0 Multiplicity = 1
 Symbolic Z-Matrix:
 C                     2.16217  -0.41908   0.27884 
 C                     1.02748  -0.1611    1.0526 
 C                     2.9871   -1.498     0.59143 
 C                     1.54596  -2.0601    2.45386 
 C                     0.70268  -0.98488   2.14171 
 C                     2.67313  -2.30757   1.67653 
 C                    -1.07859   0.54998   5.04064 
 C                    -0.54266   1.49772   6.07853 
 C                    -0.50311  -0.68939   2.99244 
 N                    -0.16404   0.19559   4.08269 
 O                    -2.2428    0.15496   5.04272 
 F                     3.46989  -3.3409    1.98123 
 H                     2.40302   0.2241   -0.56574 
 H                     0.39516   0.69064   0.80152 
 H                     3.87236  -1.70773  -0.00202 
 H                     1.33336  -2.70814   3.30058 
 H                    -0.6585    2.52443   5.72156 
 H                    -1.10072   1.37019   7.01018 
 H                     0.51456   1.30133   6.27825 
 H                    -1.29428  -0.2187    2.39688 
 H                    -0.9245   -1.61374   3.40522 
 H                     0.7734    0.58617   4.12119 
 

 GradGradGradGradGradGradGradGradGradGradGradGradGradGradGradGradGradGrad
 Berny optimization.
 Initialization pass.
                           ----------------------------
                           !    Initial Parameters    !
                           ! (Angstroms and Degrees)  !
 --------------------------                            --------------------------
 ! Name  Definition              Value          Derivative Info.                !
 --------------------------------------------------------------------------------
 ! R1    R(1,2)                  1.3974         estimate D2E/DX2                !
 ! R2    R(1,3)                  1.3936         estimate D2E/DX2                !
 ! R3    R(1,13)                 1.0886         estimate D2E/DX2                !
 ! R4    R(2,5)                  1.4037         estimate D2E/DX2                !
 ! R5    R(2,14)                 1.0901         estimate D2E/DX2                !
 ! R6    R(3,6)                  1.3898         estimate D2E/DX2                !
 ! R7    R(3,15)                 1.0862         estimate D2E/DX2                !
 ! R8    R(4,5)                  1.4017         estimate D2E/DX2                !
 ! R9    R(4,6)                  1.3914         estimate D2E/DX2                !
 ! R10   R(4,16)                 1.0872         estimate D2E/DX2                !
 ! R11   R(5,9)                  1.505          estimate D2E/DX2                !
 ! R12   R(6,12)                 1.3399         estimate D2E/DX2                !
 ! R13   R(7,8)                  1.5042         estimate D2E/DX2                !
 ! R14   R(7,10)                 1.371          estimate D2E/DX2                !
 ! R15   R(7,11)                 1.2294         estimate D2E/DX2                !
 ! R16   R(8,17)                 1.0932         estimate D2E/DX2                !
 ! R17   R(8,18)                 1.0935         estimate D2E/DX2                !
 ! R18   R(8,19)                 1.0937         estimate D2E/DX2                !
 ! R19   R(9,10)                 1.4446         estimate D2E/DX2                !
 ! R20   R(9,20)                 1.0964         estimate D2E/DX2                !
 ! R21   R(9,21)                 1.0965         estimate D2E/DX2                !
 ! R22   R(10,22)                1.0163         estimate D2E/DX2                !
 ! A1    A(2,1,3)              119.9575         estimate D2E/DX2                !
 ! A2    A(2,1,13)             120.0109         estimate D2E/DX2                !
 ! A3    A(3,1,13)             120.0313         estimate D2E/DX2                !
 ! A4    A(1,2,5)              120.608          estimate D2E/DX2                !
 ! A5    A(1,2,14)             119.1899         estimate D2E/DX2                !
 ! A6    A(5,2,14)             120.2021         estimate D2E/DX2                !
 ! A7    A(1,3,6)              119.4969         estimate D2E/DX2                !
 ! A8    A(1,3,15)             120.6203         estimate D2E/DX2                !
 ! A9    A(6,3,15)             119.8824         estimate D2E/DX2                !
 ! A10   A(5,4,6)              119.9598         estimate D2E/DX2                !
 ! A11   A(5,4,16)             120.8655         estimate D2E/DX2                !
 ! A12   A(6,4,16)             119.1747         estimate D2E/DX2                !
 ! A13   A(2,5,4)              118.9331         estimate D2E/DX2                !
 ! A14   A(2,5,9)              120.5811         estimate D2E/DX2                !
 ! A15   A(4,5,9)              120.4473         estimate D2E/DX2                !
 ! A16   A(3,6,4)              121.0379         estimate D2E/DX2                !
 ! A17   A(3,6,12)             119.5017         estimate D2E/DX2                !
 ! A18   A(4,6,12)             119.4603         estimate D2E/DX2                !
 ! A19   A(8,7,10)             114.0359         estimate D2E/DX2                !
 ! A20   A(8,7,11)             122.593          estimate D2E/DX2                !
 ! A21   A(10,7,11)            123.3546         estimate D2E/DX2                !
 ! A22   A(7,8,17)             109.1892         estimate D2E/DX2                !
 ! A23   A(7,8,18)             109.4251         estimate D2E/DX2                !
 ! A24   A(7,8,19)             110.9321         estimate D2E/DX2                !
 ! A25   A(17,8,18)            109.4924         estimate D2E/DX2                !
 ! A26   A(17,8,19)            109.3122         estimate D2E/DX2                !
 ! A27   A(18,8,19)            108.4703         estimate D2E/DX2                !
 ! A28   A(5,9,10)             111.0298         estimate D2E/DX2                !
 ! A29   A(5,9,20)             110.8162         estimate D2E/DX2                !
 ! A30   A(5,9,21)             110.8043         estimate D2E/DX2                !
 ! A31   A(10,9,20)            108.4407         estimate D2E/DX2                !
 ! A32   A(10,9,21)            108.815          estimate D2E/DX2                !
 ! A33   A(20,9,21)            106.8014         estimate D2E/DX2                !
 ! A34   A(7,10,9)             121.9462         estimate D2E/DX2                !
 ! A35   A(7,10,22)            119.3079         estimate D2E/DX2                !
 ! A36   A(9,10,22)            118.7209         estimate D2E/DX2                !
 ! D1    D(3,1,2,5)             -0.3876         estimate D2E/DX2                !
 ! D2    D(3,1,2,14)           179.5377         estimate D2E/DX2                !
 ! D3    D(13,1,2,5)           179.7899         estimate D2E/DX2                !
 ! D4    D(13,1,2,14)           -0.2848         estimate D2E/DX2                !
 ! D5    D(2,1,3,6)             -0.1733         estimate D2E/DX2                !
 ! D6    D(2,1,3,15)          -179.9298         estimate D2E/DX2                !
 ! D7    D(13,1,3,6)           179.6492         estimate D2E/DX2                !
 ! D8    D(13,1,3,15)           -0.1073         estimate D2E/DX2                !
 ! D9    D(1,2,5,4)              0.9363         estimate D2E/DX2                !
 ! D10   D(1,2,5,9)            178.6893         estimate D2E/DX2                !
 ! D11   D(14,2,5,4)          -178.9882         estimate D2E/DX2                !
 ! D12   D(14,2,5,9)            -1.2352         estimate D2E/DX2                !
 ! D13   D(1,3,6,4)              0.174          estimate D2E/DX2                !
 ! D14   D(1,3,6,12)          -179.6649         estimate D2E/DX2                !
 ! D15   D(15,3,6,4)           179.9324         estimate D2E/DX2                !
 ! D16   D(15,3,6,12)            0.0934         estimate D2E/DX2                !
 ! D17   D(6,4,5,2)             -0.9313         estimate D2E/DX2                !
 ! D18   D(6,4,5,9)           -178.6873         estimate D2E/DX2                !
 ! D19   D(16,4,5,2)           178.9763         estimate D2E/DX2                !
 ! D20   D(16,4,5,9)             1.2202         estimate D2E/DX2                !
 ! D21   D(5,4,6,3)              0.3863         estimate D2E/DX2                !
 ! D22   D(5,4,6,12)          -179.7747         estimate D2E/DX2                !
 ! D23   D(16,4,6,3)          -179.5228         estimate D2E/DX2                !
 ! D24   D(16,4,6,12)            0.3162         estimate D2E/DX2                !
 ! D25   D(2,5,9,10)           -89.2283         estimate D2E/DX2                !
 ! D26   D(2,5,9,20)            31.3508         estimate D2E/DX2                !
 ! D27   D(2,5,9,21)           149.7272         estimate D2E/DX2                !
 ! D28   D(4,5,9,10)            88.4905         estimate D2E/DX2                !
 ! D29   D(4,5,9,20)          -150.9304         estimate D2E/DX2                !
 ! D30   D(4,5,9,21)           -32.5539         estimate D2E/DX2                !
 ! D31   D(10,7,8,17)           86.7713         estimate D2E/DX2                !
 ! D32   D(10,7,8,18)         -153.4026         estimate D2E/DX2                !
 ! D33   D(10,7,8,19)          -33.7618         estimate D2E/DX2                !
 ! D34   D(11,7,8,17)          -91.7956         estimate D2E/DX2                !
 ! D35   D(11,7,8,18)           28.0305         estimate D2E/DX2                !
 ! D36   D(11,7,8,19)          147.6713         estimate D2E/DX2                !
 ! D37   D(8,7,10,9)          -178.9873         estimate D2E/DX2                !
 ! D38   D(8,7,10,22)           -0.834          estimate D2E/DX2                !
 ! D39   D(11,7,10,9)           -0.4329         estimate D2E/DX2                !
 ! D40   D(11,7,10,22)         177.7205         estimate D2E/DX2                !
 ! D41   D(5,9,10,7)          -176.2067         estimate D2E/DX2                !
 ! D42   D(5,9,10,22)            5.6295         estimate D2E/DX2                !
 ! D43   D(20,9,10,7)           61.8193         estimate D2E/DX2                !
 ! D44   D(20,9,10,22)        -116.3445         estimate D2E/DX2                !
 ! D45   D(21,9,10,7)          -53.9986         estimate D2E/DX2                !
 ! D46   D(21,9,10,22)         127.8376         estimate D2E/DX2                !
 --------------------------------------------------------------------------------
 Trust Radius=3.00D-01 FncErr=1.00D-07 GrdErr=1.00D-06
 Number of steps in this run=    114 maximum allowed number of steps=    132.
 GradGradGradGradGradGradGradGradGradGradGradGradGradGradGradGradGradGrad

                          Input orientation:                          
 ---------------------------------------------------------------------
 Center     Atomic      Atomic             Coordinates (Angstroms)
 Number     Number       Type             X           Y           Z
 ---------------------------------------------------------------------
      1          6           0        2.162174   -0.419084    0.278843
      2          6           0        1.027475   -0.161100    1.052603
      3          6           0        2.987096   -1.497995    0.591432
      4          6           0        1.545960   -2.060097    2.453864
      5          6           0        0.702684   -0.984879    2.141707
      6          6           0        2.673128   -2.307570    1.676529
      7          6           0       -1.078590    0.549978    5.040636
      8          6           0       -0.542663    1.497716    6.078532
      9          6           0       -0.503110   -0.689385    2.992439
     10          7           0       -0.164044    0.195590    4.082691
     11          8           0       -2.242799    0.154956    5.042717
     12          9           0        3.469886   -3.340895    1.981232
     13          1           0        2.403020    0.224104   -0.565743
     14          1           0        0.395165    0.690639    0.801519
     15          1           0        3.872358   -1.707728   -0.002019
     16          1           0        1.333359   -2.708142    3.300576
     17          1           0       -0.658503    2.524435    5.721559
     18          1           0       -1.100720    1.370191    7.010183
     19          1           0        0.514560    1.301326    6.278245
     20          1           0       -1.294281   -0.218695    2.396878
     21          1           0       -0.924501   -1.613737    3.405224
     22          1           0        0.773404    0.586170    4.121193
 ---------------------------------------------------------------------
                    Distance matrix (angstroms):
                    1          2          3          4          5
     1  C    0.000000
     2  C    1.397427   0.000000
     3  C    1.393649   2.416626   0.000000
     4  C    2.793450   2.416309   2.421050   0.000000
     5  C    2.433207   1.403655   2.808056   1.401660   0.000000
     6  C    2.404367   2.775751   1.389756   1.391403   2.418378
     7  C    5.840916   4.565693   6.365486   4.515766   3.732628
     8  C    6.680319   5.520595   7.179258   5.491684   4.817962
     9  C    3.813189   2.526805   4.312798   2.523411   1.504993
    10  N    4.500930   3.275421   4.998680   3.265779   2.431490
    11  O    6.513664   5.168714   7.063851   5.095421   4.288468
    12  F    3.625633   4.115680   2.358158   2.359092   3.637852
    13  H    1.088587   2.158599   2.155417   3.882029   3.418050
    14  H    2.151046   1.090100   3.398877   3.408976   2.167494
    15  H    2.159679   3.405531   1.086214   3.401125   3.894214
    16  H    3.880411   3.410920   3.396876   1.087236   2.170337
    17  H    6.800270   5.643914   7.469172   6.046107   5.194560
    18  H    7.691484   6.508980   8.132472   6.287434   5.700937
    19  H    6.455019   5.450606   6.803637   5.195078   4.730018
    20  H    4.058733   2.683458   4.819381   3.385407   2.154071
    21  H    4.552913   3.384552   4.819898   2.684679   2.153990
    22  H    4.207478   3.168471   4.658690   3.221732   2.528154
                    6          7          8          9         10
     6  C    0.000000
     7  C    5.792942   0.000000
     8  C    6.648244   1.504212   0.000000
     9  C    3.799820   2.462175   3.782716   0.000000
    10  N    4.483856   1.371001   2.412937   1.444575   0.000000
    11  O    6.446829   1.229402   2.401329   2.818345   2.290093
    12  F    1.339935   6.722163   7.503371   4.882391   5.488925
    13  H    3.392656   6.607517   7.378721   4.684092   5.310232
    14  H    3.865749   4.490195   5.420125   2.740710   3.365097
    15  H    2.148368   7.418725   8.169478   5.398937   6.049794
    16  H    2.143121   4.411422   5.378265   2.746442   3.359401
    17  H    7.128134   2.130401   1.093160   4.219108   2.890311
    18  H    7.497714   2.133625   1.093464   4.554257   3.290480
    19  H    6.233726   2.152749   1.093698   3.974306   2.550218
    20  H    4.541216   2.761673   4.131050   1.096446   2.071481
    21  H    4.051263   2.716611   4.119893   1.096534   2.076276
    22  H    4.237814   2.067986   2.528660   2.128524   1.016290
                   11         12         13         14         15
    11  O    0.000000
    12  F    7.363996   0.000000
    13  H    7.283079   4.509379   0.000000
    14  H    5.023303   5.205660   2.473569   0.000000
    15  H    8.143347   2.600482   2.491728   4.299850   0.000000
    16  H    4.901152   2.589555   4.968970   4.321713   4.284213
    17  H    2.930059   8.089235   7.361699   5.355353   8.437964
    18  H    2.579159   8.268925   8.425222   6.422380   9.131049
    19  H    3.231675   6.982012   7.181007   5.511962   7.731166
    20  H    2.835448   5.711233   4.758491   2.495253   5.887791
    21  H    2.747284   4.931680   5.497148   3.718997   5.884556
    22  H    3.183180   5.222288   4.975350   3.342785   5.645030
                   16         17         18         19         20
    16  H    0.000000
    17  H    6.099879   0.000000
    18  H    6.026501   1.785605   0.000000
    19  H    5.060906   1.783809   1.774713   0.000000
    20  H    3.730751   4.356888   4.883094   4.543939   0.000000
    21  H    2.511296   4.749803   4.683013   4.338518   1.760579
    22  H    3.440850   2.892818   3.531755   2.287209   2.810052
                   21         22
    21  H    0.000000
    22  H    2.869684   0.000000
 Stoichiometry    C9H10FNO
 Framework group  C1[X(C9H10FNO)]
 Deg. of freedom    60
 Full point group                 C1      NOp   1
 Largest Abelian subgroup         C1      NOp   1
 Largest concise Abelian subgroup C1      NOp   1
                         Standard orientation:                         
 ---------------------------------------------------------------------
 Center     Atomic      Atomic             Coordinates (Angstroms)
 Number     Number       Type             X           Y           Z
 ---------------------------------------------------------------------
      1          6           0        2.402104    1.661541    0.362853
      2          6           0        1.077286    1.586820   -0.075413
      3          6           0        3.181993    0.508005    0.421023
      4          6           0        1.312472   -0.796867   -0.393645
      5          6           0        0.522383    0.358541   -0.467408
      6          6           0        2.630353   -0.710669    0.044261
      7          6           0       -3.136878   -0.165506    0.049988
      8          6           0       -3.882504   -0.382729    1.338208
      9          6           0       -0.913125    0.273761   -0.911404
     10          7           0       -1.789128    0.027901    0.210633
     11          8           0       -3.698160   -0.137597   -1.043453
     12          9           0        3.378035   -1.820856    0.106567
     13          1           0        2.823630    2.619793    0.661337
     14          1           0        0.476272    2.495659   -0.108758
     15          1           0        4.212602    0.553512    0.761073
     16          1           0        0.909378   -1.767039   -0.673580
     17          1           0       -4.166330    0.586365    1.756894
     18          1           0       -4.781807   -0.973248    1.142744
     19          1           0       -3.264211   -0.922092    2.061378
     20          1           0       -1.226070    1.205048   -1.398194
     21          1           0       -1.046614   -0.528634   -1.646748
     22          1           0       -1.394489    0.026426    1.147171
 ---------------------------------------------------------------------
 Rotational constants (GHZ):      2.0884075      0.4018396      0.3738989
 Standard basis: 6-31G(d) (6D, 7F)
 There are   200 symmetry adapted basis functions of A   symmetry.
 Integral buffers will be    131072 words long.
 Raffenetti 2 integral format.
 Two-electron integral symmetry is turned on.
   200 basis functions,   376 primitive gaussians,   200 cartesian basis functions
    44 alpha electrons       44 beta electrons
       nuclear repulsion energy       651.3422518198 Hartrees.
 NAtoms=   22 NActive=   22 NUniq=   22 SFac= 1.00D+00 NAtFMM=   60 NAOKFM=F Big=F
 One-electron integrals computed using PRISM.
 NBasis=   200 RedAO= T  NBF=   200
 NBsUse=   200 1.00D-06 NBFU=   200
 Harris functional with IExCor=  402 diagonalized for initial guess.
 ExpMin= 1.61D-01 ExpMax= 7.00D+03 ExpMxC= 1.05D+03 IAcc=3 IRadAn=         5 AccDes= 0.00D+00
 HarFok:  IExCor=  402 AccDes= 0.00D+00 IRadAn=         5 IDoV= 1
 ScaDFX=  1.000000  1.000000  1.000000  1.000000
 FoFCou: FMM=F IPFlag=           0 FMFlag=      100000 FMFlg1=           0
         NFxFlg=           0 DoJE=T BraDBF=F KetDBF=T FulRan=T
         Omega=  0.000000  0.000000  1.000000  0.000000  0.000000 ICntrl=     500 IOpCl=  0
         NMat0=    1 NMatS0=    1 NMatT0=    0 NMatD0=    1 NMtDS0=    0 NMtDT0=    0
         I1Cent=           4 NGrid=           0.
 Petite list used in FoFCou.
 Initial guess orbital symmetries:
       Occupied  (A) (A) (A) (A) (A) (A) (A) (A) (A) (A) (A) (A)
                 (A) (A) (A) (A) (A) (A) (A) (A) (A) (A) (A) (A)
                 (A) (A) (A) (A) (A) (A) (A) (A) (A) (A) (A) (A)
                 (A) (A) (A) (A) (A) (A) (A) (A)
       Virtual   (A) (A) (A) (A) (A) (A) (A) (A) (A) (A) (A) (A)
                 (A) (A) (A) (A) (A) (A) (A) (A) (A) (A) (A) (A)
                 (A) (A) (A) (A) (A) (A) (A) (A) (A) (A) (A) (A)
                 (A) (A) (A) (A) (A) (A) (A) (A) (A) (A) (A) (A)
                 (A) (A) (A) (A) (A) (A) (A) (A) (A) (A) (A) (A)
                 (A) (A) (A) (A) (A) (A) (A) (A) (A) (A) (A) (A)
                 (A) (A) (A) (A) (A) (A) (A) (A) (A) (A) (A) (A)
                 (A) (A) (A) (A) (A) (A) (A) (A) (A) (A) (A) (A)
                 (A) (A) (A) (A) (A) (A) (A) (A) (A) (A) (A) (A)
                 (A) (A) (A) (A) (A) (A) (A) (A) (A) (A) (A) (A)
                 (A) (A) (A) (A) (A) (A) (A) (A) (A) (A) (A) (A)
                 (A) (A) (A) (A) (A) (A) (A) (A) (A) (A) (A) (A)
                 (A) (A) (A) (A) (A) (A) (A) (A) (A) (A) (A) (A)
 The electronic state of the initial guess is 1-A.
 Requested convergence on RMS density matrix=1.00D-08 within 128 cycles.
 Requested convergence on MAX density matrix=1.00D-06.
 Requested convergence on             energy=1.00D-06.
 No special actions if energy rises.
 Integral accuracy reduced to 1.0D-05 until final iterations.
 Initial convergence to 1.0D-05 achieved.  Increase integral accuracy.
 SCF Done:  E(RB3LYP) =  -578.806115678     A.U. after   15 cycles
             Convg  =    0.4926D-08             -V/T =  2.0090
 Calling FoFJK, ICntrl=      2127 FMM=F ISym2X=0 I1Cent= 0 IOpClX= 0 NMat=1 NMatS=1 NMatT=0.
 ***** Axes restored to original set *****
 -------------------------------------------------------------------
 Center     Atomic                   Forces (Hartrees/Bohr)
 Number     Number              X              Y              Z
 -------------------------------------------------------------------
      1        6          -0.002946674    0.000260578    0.003315340
      2        6          -0.000188039    0.001528853   -0.001503718
      3        6           0.006440073   -0.000376760   -0.005225705
      4        6          -0.000379803   -0.002267124    0.002512239
      5        6           0.005142812    0.001099488   -0.004486752
      6        6          -0.007944317    0.009281710   -0.001630511
      7        6          -0.006871778   -0.004564418   -0.003813531
      8        6           0.003384529    0.000389656    0.007135681
      9        6          -0.006576486   -0.003666990   -0.004641024
     10        7           0.004412625    0.006688308    0.011054786
     11        8           0.007870568   -0.001107005   -0.004380574
     12        9           0.003304926   -0.004540922    0.001446359
     13        1          -0.000003528   -0.001534633    0.001224619
     14        1          -0.000292590   -0.002476645    0.001370399
     15        1          -0.000032189   -0.001318949    0.000957893
     16        1          -0.000282838    0.000001094   -0.000804322
     17        1           0.000428693    0.002716425    0.001924999
     18        1          -0.000841083    0.001692140   -0.001970644
     19        1           0.001943629    0.003213749    0.000855663
     20        1          -0.000827801   -0.001952448   -0.002301688
     21        1          -0.000572653   -0.000004268   -0.000465107
     22        1          -0.005168076   -0.003061838   -0.000574402
 -------------------------------------------------------------------
 Cartesian Forces:  Max     0.011054786 RMS     0.003745753

 GradGradGradGradGradGradGradGradGradGradGradGradGradGradGradGradGradGrad
 Berny optimization.
 Internal  Forces:  Max     0.012587710 RMS     0.002758589
 Search for a local minimum.
 Step number   1 out of a maximum of  114
 All quantities printed in internal units (Hartrees-Bohrs-Radians)
 Mixed Optimization -- RFO/linear search
 Second derivative matrix not updated -- first step.
 ITU=  0
     Eigenvalues ---    0.00700   0.00710   0.01102   0.01264   0.01496
     Eigenvalues ---    0.01512   0.02065   0.02075   0.02083   0.02133
     Eigenvalues ---    0.02141   0.02147   0.02196   0.02199   0.02214
     Eigenvalues ---    0.05246   0.06607   0.07348   0.07512   0.09878
     Eigenvalues ---    0.13187   0.15995   0.16000   0.16000   0.16000
     Eigenvalues ---    0.16000   0.16000   0.16000   0.16000   0.21947
     Eigenvalues ---    0.22000   0.22001   0.23467   0.23496   0.24980
     Eigenvalues ---    0.24993   0.25000   0.25000   0.31859   0.31939
     Eigenvalues ---    0.34068   0.34078   0.34389   0.34415   0.34450
     Eigenvalues ---    0.34801   0.34976   0.35134   0.35254   0.38965
     Eigenvalues ---    0.41929   0.42072   0.44935   0.45447   0.46185
     Eigenvalues ---    0.46580   0.47109   0.50785   0.57219   0.91336
 RFO step:  Lambda=-2.87952068D-03 EMin= 6.99904222D-03
 Linear search not attempted -- first point.
 Iteration  1 RMS(Cart)=  0.03472994 RMS(Int)=  0.00057927
 Iteration  2 RMS(Cart)=  0.00078390 RMS(Int)=  0.00004585
 Iteration  3 RMS(Cart)=  0.00000047 RMS(Int)=  0.00004585
 Variable       Old X    -DE/DX   Delta X   Delta X   Delta X     New X
                                 (Linear)    (Quad)   (Total)
    R1        2.64075  -0.00037   0.00000  -0.00090  -0.00090   2.63985
    R2        2.63361   0.00088   0.00000   0.00213   0.00214   2.63576
    R3        2.05713  -0.00186   0.00000  -0.00527  -0.00527   2.05186
    R4        2.65252  -0.00206   0.00000  -0.00492  -0.00494   2.64758
    R5        2.05999  -0.00208   0.00000  -0.00593  -0.00593   2.05406
    R6        2.62626   0.00034   0.00000   0.00107   0.00109   2.62734
    R7        2.05265  -0.00029   0.00000  -0.00083  -0.00083   2.05182
    R8        2.64875  -0.00146   0.00000  -0.00346  -0.00348   2.64528
    R9        2.62937  -0.00094   0.00000  -0.00188  -0.00187   2.62750
   R10        2.05458  -0.00057   0.00000  -0.00161  -0.00161   2.05296
   R11        2.84402   0.00392   0.00000   0.01220   0.01220   2.85622
   R12        2.53211   0.00580   0.00000   0.01008   0.01008   2.54219
   R13        2.84255   0.01228   0.00000   0.03811   0.03811   2.88066
   R14        2.59082  -0.00351   0.00000  -0.00688  -0.00688   2.58394
   R15        2.32323  -0.00710   0.00000  -0.00775  -0.00775   2.31548
   R16        2.06577   0.00188   0.00000   0.00540   0.00540   2.07118
   R17        2.06635  -0.00145   0.00000  -0.00417  -0.00417   2.06218
   R18        2.06679   0.00146   0.00000   0.00420   0.00420   2.07099
   R19        2.72985   0.01259   0.00000   0.03207   0.03207   2.76192
   R20        2.07198   0.00101   0.00000   0.00294   0.00294   2.07492
   R21        2.07215   0.00005   0.00000   0.00014   0.00014   2.07229
   R22        1.92051  -0.00597   0.00000  -0.01319  -0.01319   1.90732
    A1        2.09365   0.00184   0.00000   0.00900   0.00899   2.10264
    A2        2.09459  -0.00029   0.00000  -0.00061  -0.00063   2.09395
    A3        2.09494  -0.00155   0.00000  -0.00835  -0.00837   2.08657
    A4        2.10501  -0.00003   0.00000  -0.00077  -0.00080   2.10420
    A5        2.08026   0.00185   0.00000   0.01164   0.01164   2.09190
    A6        2.09792  -0.00182   0.00000  -0.01087  -0.01087   2.08706
    A7        2.08561  -0.00449   0.00000  -0.01841  -0.01839   2.06722
    A8        2.10522   0.00388   0.00000   0.01923   0.01919   2.12441
    A9        2.09234   0.00062   0.00000  -0.00078  -0.00081   2.09153
   A10        2.09369  -0.00160   0.00000  -0.00708  -0.00710   2.08659
   A11        2.10950   0.00073   0.00000   0.00313   0.00313   2.11263
   A12        2.07999   0.00087   0.00000   0.00396   0.00396   2.08395
   A13        2.07577   0.00061   0.00000   0.00170   0.00164   2.07741
   A14        2.10454   0.00047   0.00000   0.00242   0.00242   2.10695
   A15        2.10220  -0.00107   0.00000  -0.00368  -0.00369   2.09851
   A16        2.11251   0.00367   0.00000   0.01577   0.01579   2.12829
   A17        2.08570  -0.00158   0.00000  -0.00688  -0.00690   2.07880
   A18        2.08497  -0.00209   0.00000  -0.00888  -0.00889   2.07608
   A19        1.99030   0.00695   0.00000   0.02748   0.02748   2.01779
   A20        2.13965   0.00304   0.00000   0.01204   0.01204   2.15169
   A21        2.15294  -0.00999   0.00000  -0.03953  -0.03953   2.11341
   A22        1.90571   0.00268   0.00000   0.01246   0.01232   1.91803
   A23        1.90983  -0.00145   0.00000  -0.00957  -0.00963   1.90020
   A24        1.93613   0.00445   0.00000   0.03207   0.03189   1.96802
   A25        1.91100  -0.00241   0.00000  -0.02441  -0.02442   1.88659
   A26        1.90786  -0.00336   0.00000  -0.01912  -0.01937   1.88849
   A27        1.89316  -0.00002   0.00000   0.00775   0.00765   1.90081
   A28        1.93783  -0.00113   0.00000  -0.00307  -0.00308   1.93475
   A29        1.93411  -0.00131   0.00000  -0.00935  -0.00941   1.92470
   A30        1.93390   0.00041   0.00000  -0.00309  -0.00313   1.93077
   A31        1.89265   0.00295   0.00000   0.02728   0.02729   1.91993
   A32        1.89918   0.00002   0.00000  -0.00123  -0.00124   1.89794
   A33        1.86404  -0.00085   0.00000  -0.01002  -0.01010   1.85393
   A34        2.12836  -0.00168   0.00000  -0.00760  -0.00762   2.12075
   A35        2.08231   0.00158   0.00000   0.00821   0.00820   2.09051
   A36        2.07207   0.00010   0.00000  -0.00084  -0.00085   2.07122
    D1       -0.00676   0.00016   0.00000   0.00721   0.00718   0.00041
    D2        3.13352   0.00038   0.00000   0.01635   0.01639  -3.13327
    D3        3.13793  -0.00009   0.00000  -0.00327  -0.00334   3.13459
    D4       -0.00497   0.00013   0.00000   0.00587   0.00588   0.00091
    D5       -0.00302   0.00005   0.00000   0.00227   0.00228  -0.00074
    D6       -3.14037  -0.00021   0.00000  -0.00861  -0.00866   3.13416
    D7        3.13547   0.00030   0.00000   0.01277   0.01277  -3.13495
    D8       -0.00187   0.00004   0.00000   0.00189   0.00183  -0.00004
    D9        0.01634  -0.00032   0.00000  -0.01535  -0.01538   0.00096
   D10        3.11872  -0.00011   0.00000  -0.00261  -0.00261   3.11611
   D11       -3.12393  -0.00054   0.00000  -0.02460  -0.02459   3.13466
   D12       -0.02156  -0.00033   0.00000  -0.01186  -0.01182  -0.03338
   D13        0.00304  -0.00007   0.00000  -0.00336  -0.00335  -0.00031
   D14       -3.13574  -0.00022   0.00000  -0.00952  -0.00950   3.13794
   D15        3.14041   0.00019   0.00000   0.00749   0.00743  -3.13534
   D16        0.00163   0.00004   0.00000   0.00133   0.00128   0.00291
   D17       -0.01625   0.00030   0.00000   0.01426   0.01427  -0.00198
   D18       -3.11868   0.00006   0.00000   0.00139   0.00142  -3.11726
   D19        3.12373   0.00047   0.00000   0.02100   0.02100  -3.13846
   D20        0.02130   0.00023   0.00000   0.00814   0.00815   0.02945
   D21        0.00674  -0.00011   0.00000  -0.00506  -0.00505   0.00169
   D22       -3.13766   0.00004   0.00000   0.00111   0.00109  -3.13657
   D23       -3.13326  -0.00028   0.00000  -0.01169  -0.01167   3.13825
   D24        0.00552  -0.00013   0.00000  -0.00552  -0.00553  -0.00001
   D25       -1.55733  -0.00105   0.00000  -0.02495  -0.02493  -1.58226
   D26        0.54717   0.00104   0.00000   0.00117   0.00113   0.54831
   D27        2.61323  -0.00059   0.00000  -0.01923  -0.01920   2.59403
   D28        1.54445  -0.00080   0.00000  -0.01190  -0.01188   1.53257
   D29       -2.63423   0.00128   0.00000   0.01423   0.01418  -2.62005
   D30       -0.56817  -0.00035   0.00000  -0.00617  -0.00615  -0.57433
   D31        1.51444   0.00086   0.00000   0.01621   0.01631   1.53075
   D32       -2.67738  -0.00132   0.00000  -0.01179  -0.01183  -2.68921
   D33       -0.58926   0.00050   0.00000   0.01168   0.01162  -0.57763
   D34       -1.60214   0.00095   0.00000   0.01703   0.01712  -1.58501
   D35        0.48922  -0.00123   0.00000  -0.01098  -0.01102   0.47821
   D36        2.57735   0.00059   0.00000   0.01249   0.01243   2.58978
   D37       -3.12392   0.00065   0.00000   0.03083   0.03084  -3.09307
   D38       -0.01456   0.00048   0.00000   0.02219   0.02218   0.00763
   D39       -0.00755   0.00077   0.00000   0.03085   0.03086   0.02331
   D40        3.10181   0.00060   0.00000   0.02222   0.02220   3.12401
   D41       -3.07539  -0.00012   0.00000   0.00064   0.00067  -3.07472
   D42        0.09825   0.00002   0.00000   0.00906   0.00907   0.10732
   D43        1.07895   0.00027   0.00000  -0.00383  -0.00383   1.07512
   D44       -2.03059   0.00042   0.00000   0.00459   0.00457  -2.02602
   D45       -0.94245  -0.00032   0.00000  -0.00603  -0.00603  -0.94848
   D46        2.23119  -0.00018   0.00000   0.00239   0.00237   2.23356
         Item               Value     Threshold  Converged?
 Maximum Force            0.012588     0.000450     NO 
 RMS     Force            0.002759     0.000300     NO 
 Maximum Displacement     0.156998     0.001800     NO 
 RMS     Displacement     0.034987     0.001200     NO 
 Predicted change in Energy=-1.466895D-03
 GradGradGradGradGradGradGradGradGradGradGradGradGradGradGradGradGradGrad

                          Input orientation:                          
 ---------------------------------------------------------------------
 Center     Atomic      Atomic             Coordinates (Angstroms)
 Number     Number       Type             X           Y           Z
 ---------------------------------------------------------------------
      1          6           0        2.168231   -0.429519    0.264787
      2          6           0        1.032977   -0.166644    1.035217
      3          6           0        2.998625   -1.506825    0.573447
      4          6           0        1.544205   -2.060427    2.441589
      5          6           0        0.710795   -0.979862    2.129652
      6          6           0        2.668906   -2.306434    1.661993
      7          6           0       -1.056426    0.545569    5.054837
      8          6           0       -0.559841    1.518442    6.118157
      9          6           0       -0.498319   -0.679409    2.985368
     10          7           0       -0.142525    0.197512    4.099161
     11          8           0       -2.202201    0.112570    5.022124
     12          9           0        3.458210   -3.351624    1.969118
     13          1           0        2.405342    0.203031   -0.585284
     14          1           0        0.388552    0.670963    0.781018
     15          1           0        3.882075   -1.733715   -0.015574
     16          1           0        1.323884   -2.713783    3.281119
     17          1           0       -0.707941    2.549868    5.778323
     18          1           0       -1.143832    1.374454    7.028687
     19          1           0        0.502298    1.384405    6.352554
     20          1           0       -1.287620   -0.215414    2.379301
     21          1           0       -0.925947   -1.605244    3.388501
     22          1           0        0.791611    0.577882    4.136745
 ---------------------------------------------------------------------
                    Distance matrix (angstroms):
                    1          2          3          4          5
     1  C    0.000000
     2  C    1.396949   0.000000
     3  C    1.394782   2.423446   0.000000
     4  C    2.790652   2.413639   2.431413   0.000000
     5  C    2.429963   1.401041   2.816670   1.399821   0.000000
     6  C    2.392838   2.765468   1.390331   1.390411   2.410954
     7  C    5.856090   4.585870   6.382681   4.514815   3.742554
     8  C    6.745285   5.586848   7.249740   5.545490   4.874854
     9  C    3.817656   2.531973   4.327886   2.524839   1.511449
    10  N    4.520530   3.301844   5.020184   3.269692   2.448127
    11  O    6.482807   5.141961   7.032905   5.041491   4.247981
    12  F    3.620427   4.110720   2.358473   2.356657   3.633086
    13  H    1.085800   2.155474   2.149012   3.876437   3.411980
    14  H    2.155182   1.086961   3.405632   3.399047   2.155893
    15  H    2.171817   3.417196   1.085775   3.407349   3.902218
    16  H    3.876731   3.408317   3.404848   1.086382   2.169847
    17  H    6.895520   5.736488   7.568760   6.120520   5.271110
    18  H    7.744316   6.560120   8.193402   6.329724   5.743081
    19  H    6.567082   5.564301   6.927405   5.314893   4.844185
    20  H    4.057082   2.682184   4.827085   3.380411   2.154151
    21  H    4.551248   3.383031   4.830785   2.684303   2.157481
    22  H    4.231075   3.198758   4.681240   3.225000   2.541951
                    6          7          8          9         10
     6  C    0.000000
     7  C    5.789940   0.000000
     8  C    6.701632   1.524378   0.000000
     9  C    3.798664   2.468756   3.827362   0.000000
    10  N    4.484828   1.367360   2.448541   1.461544   0.000000
    11  O    6.392945   1.225299   2.423863   2.771068   2.258614
    12  F    1.345269   6.715036   7.554919   4.881354   5.486232
    13  H    3.378925   6.626623   7.447062   4.686097   5.332512
    14  H    3.852405   4.513227   5.486595   2.732984   3.393563
    15  H    2.148026   7.435925   8.241953   5.413415   6.071086
    16  H    2.143966   4.408551   5.432212   2.747102   3.360831
    17  H    7.206312   2.159187   1.096020   4.274665   2.944972
    18  H    7.542368   2.142609   1.091258   4.580771   3.312089
    19  H    6.349634   2.194843   1.095922   4.074126   2.627222
    20  H    4.532217   2.791243   4.185088   1.098000   2.107051
    21  H    4.049132   2.723912   4.164429   1.096610   2.090147
    22  H    4.238857   2.063778   2.576251   2.137841   1.009309
                   11         12         13         14         15
    11  O    0.000000
    12  F    7.304912   0.000000
    13  H    7.258144   4.502118   0.000000
    14  H    5.001078   5.197651   2.480561   0.000000
    15  H    8.112063   2.595436   2.501258   4.315290   0.000000
    16  H    4.842792   2.585254   4.962502   4.310667   4.286381
    17  H    2.957206   8.166668   7.462953   5.450288   8.543217
    18  H    2.595918   8.313473   8.481829   6.471203   9.194675
    19  H    3.271379   7.098021   7.290461   5.618180   7.854846
    20  H    2.815767   5.703241   4.754138   2.479864   5.896304
    21  H    2.692291   4.928014   5.491658   3.702430   5.892478
    22  H    3.156472   5.220189   5.004218   3.381127   5.668879
                   16         17         18         19         20
    16  H    0.000000
    17  H    6.170118   0.000000
    18  H    6.070219   1.770596   0.000000
    19  H    5.186893   1.775590   1.779606   0.000000
    20  H    3.724926   4.419973   4.915805   4.642194   0.000000
    21  H    2.510404   4.798305   4.709249   4.445615   1.755254
    22  H    3.442450   2.971895   3.569845   2.375709   2.835688
                   21         22
    21  H    0.000000
    22  H    2.876788   0.000000
 Stoichiometry    C9H10FNO
 Framework group  C1[X(C9H10FNO)]
 Deg. of freedom    60
 Full point group                 C1      NOp   1
 Largest Abelian subgroup         C1      NOp   1
 Largest concise Abelian subgroup C1      NOp   1
                         Standard orientation:                         
 ---------------------------------------------------------------------
 Center     Atomic      Atomic             Coordinates (Angstroms)
 Number     Number       Type             X           Y           Z
 ---------------------------------------------------------------------
      1          6           0        2.417379    1.653318    0.367375
      2          6           0        1.094359    1.589912   -0.076544
      3          6           0        3.196940    0.498695    0.434818
      4          6           0        1.310274   -0.793315   -0.391601
      5          6           0        0.529573    0.366546   -0.460348
      6          6           0        2.625443   -0.709466    0.051728
      7          6           0       -3.139153   -0.168327    0.050604
      8          6           0       -3.944690   -0.371204    1.328759
      9          6           0       -0.911331    0.288597   -0.910012
     10          7           0       -1.796042    0.021986    0.222382
     11          8           0       -3.643760   -0.145454   -1.065733
     12          9           0        3.366593   -1.830778    0.107454
     13          1           0        2.847499    2.607507    0.656307
     14          1           0        0.498290    2.497136   -0.132501
     15          1           0        4.229259    0.525667    0.770222
     16          1           0        0.906461   -1.758604   -0.683798
     17          1           0       -4.259655    0.599246    1.729114
     18          1           0       -4.840836   -0.947747    1.093463
     19          1           0       -3.379312   -0.895597    2.107479
     20          1           0       -1.206447    1.223010   -1.405372
     21          1           0       -1.041416   -0.506733   -1.653707
     22          1           0       -1.403571    0.014312    1.152227
 ---------------------------------------------------------------------
 Rotational constants (GHZ):      2.0809888      0.4006688      0.3730070
 Standard basis: 6-31G(d) (6D, 7F)
 There are   200 symmetry adapted basis functions of A   symmetry.
 Integral buffers will be    131072 words long.
 Raffenetti 2 integral format.
 Two-electron integral symmetry is turned on.
   200 basis functions,   376 primitive gaussians,   200 cartesian basis functions
    44 alpha electrons       44 beta electrons
       nuclear repulsion energy       650.4594110350 Hartrees.
 NAtoms=   22 NActive=   22 NUniq=   22 SFac= 1.00D+00 NAtFMM=   60 NAOKFM=F Big=F
 One-electron integrals computed using PRISM.
 NBasis=   200 RedAO= T  NBF=   200
 NBsUse=   200 1.00D-06 NBFU=   200
 Initial guess read from the read-write file.
 B after Tr=     0.000000    0.000000    0.000000
         Rot=    1.000000    0.000000    0.000000    0.000000 Ang=   0.00 deg.
 Initial guess orbital symmetries:
       Occupied  (A) (A) (A) (A) (A) (A) (A) (A) (A) (A) (A) (A)
                 (A) (A) (A) (A) (A) (A) (A) (A) (A) (A) (A) (A)
                 (A) (A) (A) (A) (A) (A) (A) (A) (A) (A) (A) (A)
                 (A) (A) (A) (A) (A) (A) (A) (A)
       Virtual   (A) (A) (A) (A) (A) (A) (A) (A) (A) (A) (A) (A)
                 (A) (A) (A) (A) (A) (A) (A) (A) (A) (A) (A) (A)
                 (A) (A) (A) (A) (A) (A) (A) (A) (A) (A) (A) (A)
                 (A) (A) (A) (A) (A) (A) (A) (A) (A) (A) (A) (A)
                 (A) (A) (A) (A) (A) (A) (A) (A) (A) (A) (A) (A)
                 (A) (A) (A) (A) (A) (A) (A) (A) (A) (A) (A) (A)
                 (A) (A) (A) (A) (A) (A) (A) (A) (A) (A) (A) (A)
                 (A) (A) (A) (A) (A) (A) (A) (A) (A) (A) (A) (A)
                 (A) (A) (A) (A) (A) (A) (A) (A) (A) (A) (A) (A)
                 (A) (A) (A) (A) (A) (A) (A) (A) (A) (A) (A) (A)
                 (A) (A) (A) (A) (A) (A) (A) (A) (A) (A) (A) (A)
                 (A) (A) (A) (A) (A) (A) (A) (A) (A) (A) (A) (A)
                 (A) (A) (A) (A) (A) (A) (A) (A) (A) (A) (A) (A)
 Harris functional with IExCor=  402 diagonalized for initial guess.
 ExpMin= 1.61D-01 ExpMax= 7.00D+03 ExpMxC= 1.05D+03 IAcc=3 IRadAn=         5 AccDes= 0.00D+00
 HarFok:  IExCor=  402 AccDes= 0.00D+00 IRadAn=         5 IDoV= 1
 ScaDFX=  1.000000  1.000000  1.000000  1.000000
 FoFCou: FMM=F IPFlag=           0 FMFlag=      100000 FMFlg1=           0
         NFxFlg=           0 DoJE=T BraDBF=F KetDBF=T FulRan=T
         Omega=  0.000000  0.000000  1.000000  0.000000  0.000000 ICntrl=     500 IOpCl=  0
         NMat0=    1 NMatS0=    1 NMatT0=    0 NMatD0=    1 NMtDS0=    0 NMtDT0=    0
         I1Cent=           4 NGrid=           0.
 Petite list used in FoFCou.
 Requested convergence on RMS density matrix=1.00D-08 within 128 cycles.
 Requested convergence on MAX density matrix=1.00D-06.
 Requested convergence on             energy=1.00D-06.
 No special actions if energy rises.
 Integral accuracy reduced to 1.0D-05 until final iterations.
 Initial convergence to 1.0D-05 achieved.  Increase integral accuracy.
 SCF Done:  E(RB3LYP) =  -578.807425278     A.U. after   12 cycles
             Convg  =    0.5083D-08             -V/T =  2.0090
 Calling FoFJK, ICntrl=      2127 FMM=F ISym2X=0 I1Cent= 0 IOpClX= 0 NMat=1 NMatS=1 NMatT=0.
 ***** Axes restored to original set *****
 -------------------------------------------------------------------
 Center     Atomic                   Forces (Hartrees/Bohr)
 Number     Number              X              Y              Z
 -------------------------------------------------------------------
      1        6          -0.001216130   -0.000162099    0.000905906
      2        6           0.000574820    0.000304727   -0.000716474
      3        6           0.001387883   -0.000152580   -0.001148409
      4        6           0.000578567   -0.001187601    0.001165177
      5        6           0.000886686    0.000697176   -0.000328632
      6        6          -0.003108101    0.003248701   -0.000628052
      7        6          -0.001397827   -0.002124760   -0.002846095
      8        6           0.000661525   -0.001183232    0.000169418
      9        6          -0.001414348   -0.001785108   -0.000805865
     10        7           0.001822638    0.002139654    0.002167125
     11        8          -0.000741251    0.001286583    0.002072851
     12        9           0.001707344   -0.002259306    0.000747003
     13        1           0.000103828    0.000212519   -0.000223742
     14        1          -0.000071635   -0.000072883    0.000157313
     15        1          -0.000264347   -0.000211906    0.000545034
     16        1           0.000228422    0.000002286   -0.000261002
     17        1          -0.000199621    0.000137005   -0.000244740
     18        1          -0.000735053   -0.000231775   -0.000193463
     19        1          -0.000038775    0.000212592   -0.000726599
     20        1           0.000407938    0.000842054    0.000984478
     21        1           0.000065337    0.000639577    0.000365905
     22        1           0.000762101   -0.000351623   -0.001157138
 -------------------------------------------------------------------
 Cartesian Forces:  Max     0.003248701 RMS     0.001154720

 GradGradGradGradGradGradGradGradGradGradGradGradGradGradGradGradGradGrad
 Berny optimization.
 Using GEDIIS/GDIIS optimizer.
 Internal  Forces:  Max     0.003889963 RMS     0.000705621
 Search for a local minimum.
 Step number   2 out of a maximum of  114
 All quantities printed in internal units (Hartrees-Bohrs-Radians)
 Mixed Optimization -- En-DIIS/RFO-DIIS
 Update second derivatives using D2CorX and points    1    2
 DE= -1.31D-03 DEPred=-1.47D-03 R= 8.93D-01
 SS=  1.41D+00  RLast= 1.37D-01 DXNew= 5.0454D-01 4.1153D-01
 Trust test= 8.93D-01 RLast= 1.37D-01 DXMaxT set to 4.12D-01
 ITU=  1  0
 Use linear search instead of GDIIS.
     Eigenvalues ---    0.00698   0.00709   0.01102   0.01242   0.01499
     Eigenvalues ---    0.01512   0.02068   0.02083   0.02086   0.02132
     Eigenvalues ---    0.02141   0.02149   0.02196   0.02200   0.02214
     Eigenvalues ---    0.05256   0.06657   0.07037   0.07411   0.10036
     Eigenvalues ---    0.13224   0.15214   0.15997   0.15999   0.16000
     Eigenvalues ---    0.16000   0.16000   0.16000   0.16334   0.21266
     Eigenvalues ---    0.21934   0.22044   0.22984   0.23481   0.24952
     Eigenvalues ---    0.24992   0.25000   0.27863   0.31743   0.33359
     Eigenvalues ---    0.34067   0.34186   0.34400   0.34418   0.34549
     Eigenvalues ---    0.34799   0.35060   0.35143   0.35309   0.39511
     Eigenvalues ---    0.41982   0.42043   0.45059   0.45446   0.46289
     Eigenvalues ---    0.46614   0.47144   0.50724   0.56651   0.91310
 RFO step:  Lambda=-1.88114176D-04 EMin= 6.97986704D-03
 Quartic linear search produced a step of -0.07906.
 Iteration  1 RMS(Cart)=  0.01050568 RMS(Int)=  0.00005508
 Iteration  2 RMS(Cart)=  0.00006756 RMS(Int)=  0.00000964
 Iteration  3 RMS(Cart)=  0.00000000 RMS(Int)=  0.00000964
 Variable       Old X    -DE/DX   Delta X   Delta X   Delta X     New X
                                 (Linear)    (Quad)   (Total)
    R1        2.63985  -0.00062   0.00007  -0.00140  -0.00133   2.63852
    R2        2.63576   0.00037  -0.00017   0.00101   0.00084   2.63660
    R3        2.05186   0.00032   0.00042   0.00009   0.00051   2.05237
    R4        2.64758   0.00024   0.00039  -0.00023   0.00016   2.64774
    R5        2.05406  -0.00005   0.00047  -0.00098  -0.00051   2.05355
    R6        2.62734   0.00021  -0.00009   0.00058   0.00050   2.62784
    R7        2.05182  -0.00047   0.00007  -0.00134  -0.00127   2.05055
    R8        2.64528   0.00048   0.00027   0.00048   0.00076   2.64604
    R9        2.62750  -0.00073   0.00015  -0.00167  -0.00152   2.62598
   R10        2.05296  -0.00025   0.00013  -0.00088  -0.00076   2.05221
   R11        2.85622   0.00044  -0.00096   0.00302   0.00206   2.85828
   R12        2.54219   0.00293  -0.00080   0.00615   0.00536   2.54755
   R13        2.88066  -0.00148  -0.00301   0.00121  -0.00181   2.87885
   R14        2.58394  -0.00008   0.00054  -0.00113  -0.00059   2.58335
   R15        2.31548   0.00018   0.00061  -0.00093  -0.00031   2.31517
   R16        2.07118   0.00023  -0.00043   0.00139   0.00097   2.07214
   R17        2.06218   0.00026   0.00033   0.00010   0.00043   2.06261
   R18        2.07099  -0.00022  -0.00033   0.00002  -0.00032   2.07068
   R19        2.76192  -0.00062  -0.00254   0.00314   0.00061   2.76252
   R20        2.07492  -0.00048  -0.00023  -0.00088  -0.00111   2.07381
   R21        2.07229  -0.00043  -0.00001  -0.00114  -0.00115   2.07114
   R22        1.90732   0.00053   0.00104  -0.00081   0.00024   1.90755
    A1        2.10264   0.00013  -0.00071   0.00185   0.00113   2.10378
    A2        2.09395  -0.00006   0.00005  -0.00032  -0.00027   2.09368
    A3        2.08657  -0.00007   0.00066  -0.00152  -0.00086   2.08571
    A4        2.10420  -0.00002   0.00006  -0.00018  -0.00012   2.10409
    A5        2.09190   0.00019  -0.00092   0.00276   0.00184   2.09374
    A6        2.08706  -0.00018   0.00086  -0.00260  -0.00174   2.08532
    A7        2.06722  -0.00055   0.00145  -0.00483  -0.00338   2.06384
    A8        2.12441   0.00072  -0.00152   0.00643   0.00491   2.12932
    A9        2.09153  -0.00017   0.00006  -0.00159  -0.00153   2.09000
   A10        2.08659  -0.00075   0.00056  -0.00395  -0.00338   2.08321
   A11        2.11263   0.00062  -0.00025   0.00332   0.00307   2.11570
   A12        2.08395   0.00013  -0.00031   0.00061   0.00030   2.08425
   A13        2.07741   0.00029  -0.00013   0.00138   0.00125   2.07866
   A14        2.10695  -0.00008  -0.00019   0.00001  -0.00019   2.10677
   A15        2.09851  -0.00021   0.00029  -0.00134  -0.00104   2.09747
   A16        2.12829   0.00090  -0.00125   0.00574   0.00449   2.13279
   A17        2.07880  -0.00037   0.00055  -0.00243  -0.00189   2.07691
   A18        2.07608  -0.00053   0.00070  -0.00330  -0.00260   2.07348
   A19        2.01779  -0.00189  -0.00217  -0.00295  -0.00513   2.01265
   A20        2.15169  -0.00200  -0.00095  -0.00558  -0.00655   2.14515
   A21        2.11341   0.00389   0.00313   0.00872   0.01183   2.12525
   A22        1.91803  -0.00031  -0.00097  -0.00110  -0.00207   1.91596
   A23        1.90020  -0.00072   0.00076  -0.00504  -0.00428   1.89592
   A24        1.96802  -0.00017  -0.00252   0.00418   0.00168   1.96969
   A25        1.88659   0.00026   0.00193  -0.00327  -0.00136   1.88523
   A26        1.88849   0.00012   0.00153  -0.00298  -0.00143   1.88706
   A27        1.90081   0.00086  -0.00060   0.00804   0.00744   1.90825
   A28        1.93475  -0.00073   0.00024  -0.00460  -0.00435   1.93040
   A29        1.92470   0.00084   0.00074   0.00394   0.00466   1.92936
   A30        1.93077   0.00060   0.00025   0.00526   0.00550   1.93627
   A31        1.91993  -0.00074  -0.00216  -0.00478  -0.00694   1.91300
   A32        1.89794  -0.00013   0.00010  -0.00251  -0.00240   1.89554
   A33        1.85393   0.00018   0.00080   0.00289   0.00366   1.85759
   A34        2.12075  -0.00144   0.00060  -0.00712  -0.00652   2.11423
   A35        2.09051   0.00198  -0.00065   0.01143   0.01078   2.10129
   A36        2.07122  -0.00054   0.00007  -0.00438  -0.00431   2.06691
    D1        0.00041  -0.00005  -0.00057  -0.00131  -0.00187  -0.00146
    D2       -3.13327  -0.00001  -0.00130   0.00175   0.00045  -3.13282
    D3        3.13459   0.00001   0.00026  -0.00027   0.00000   3.13459
    D4        0.00091   0.00005  -0.00046   0.00279   0.00233   0.00323
    D5       -0.00074   0.00003  -0.00018   0.00141   0.00123   0.00049
    D6        3.13416   0.00006   0.00068   0.00118   0.00186   3.13602
    D7       -3.13495  -0.00003  -0.00101   0.00037  -0.00064  -3.13559
    D8       -0.00004   0.00000  -0.00014   0.00013  -0.00001  -0.00005
    D9        0.00096   0.00007   0.00122   0.00062   0.00184   0.00280
   D10        3.11611   0.00006   0.00021   0.00250   0.00271   3.11882
   D11        3.13466   0.00003   0.00194  -0.00240  -0.00046   3.13421
   D12       -0.03338   0.00002   0.00093  -0.00052   0.00042  -0.03296
   D13       -0.00031  -0.00001   0.00026  -0.00088  -0.00061  -0.00092
   D14        3.13794   0.00003   0.00075   0.00002   0.00077   3.13871
   D15       -3.13534  -0.00004  -0.00059  -0.00068  -0.00126  -3.13660
   D16        0.00291   0.00000  -0.00010   0.00022   0.00013   0.00304
   D17       -0.00198  -0.00005  -0.00113  -0.00007  -0.00120  -0.00318
   D18       -3.11726  -0.00005  -0.00011  -0.00196  -0.00207  -3.11933
   D19       -3.13846  -0.00001  -0.00166   0.00258   0.00092  -3.13754
   D20        0.02945  -0.00001  -0.00064   0.00069   0.00004   0.02949
   D21        0.00169   0.00002   0.00040   0.00021   0.00061   0.00229
   D22       -3.13657  -0.00002  -0.00009  -0.00069  -0.00078  -3.13735
   D23        3.13825  -0.00002   0.00092  -0.00239  -0.00146   3.13678
   D24       -0.00001  -0.00006   0.00044  -0.00329  -0.00285  -0.00285
   D25       -1.58226   0.00011   0.00197  -0.01297  -0.01100  -1.59326
   D26        0.54831  -0.00075  -0.00009  -0.01944  -0.01954   0.52876
   D27        2.59403   0.00035   0.00152  -0.01027  -0.00873   2.58530
   D28        1.53257   0.00011   0.00094  -0.01103  -0.01009   1.52248
   D29       -2.62005  -0.00075  -0.00112  -0.01749  -0.01863  -2.63868
   D30       -0.57433   0.00036   0.00049  -0.00832  -0.00782  -0.58214
   D31        1.53075   0.00022  -0.00129   0.02035   0.01903   1.54979
   D32       -2.68921  -0.00007   0.00094   0.01274   0.01367  -2.67554
   D33       -0.57763   0.00040  -0.00092   0.02212   0.02119  -0.55644
   D34       -1.58501   0.00007  -0.00135   0.01214   0.01079  -1.57423
   D35        0.47821  -0.00022   0.00087   0.00453   0.00543   0.48363
   D36        2.58978   0.00025  -0.00098   0.01391   0.01295   2.60273
   D37       -3.09307  -0.00002  -0.00244   0.00007  -0.00240  -3.09547
   D38        0.00763  -0.00007  -0.00175  -0.00201  -0.00380   0.00383
   D39        0.02331   0.00003  -0.00244   0.00786   0.00545   0.02876
   D40        3.12401  -0.00002  -0.00176   0.00578   0.00405   3.12806
   D41       -3.07472   0.00001  -0.00005   0.00272   0.00267  -3.07205
   D42        0.10732   0.00001  -0.00072   0.00441   0.00370   0.11102
   D43        1.07512  -0.00005   0.00030   0.00407   0.00437   1.07949
   D44       -2.02602  -0.00006  -0.00036   0.00577   0.00540  -2.02062
   D45       -0.94848   0.00022   0.00048   0.00469   0.00517  -0.94331
   D46        2.23356   0.00021  -0.00019   0.00639   0.00620   2.23976
         Item               Value     Threshold  Converged?
 Maximum Force            0.003890     0.000450     NO 
 RMS     Force            0.000706     0.000300     NO 
 Maximum Displacement     0.045602     0.001800     NO 
 RMS     Displacement     0.010521     0.001200     NO 
 Predicted change in Energy=-1.043601D-04
 GradGradGradGradGradGradGradGradGradGradGradGradGradGradGradGradGradGrad

                          Input orientation:                          
 ---------------------------------------------------------------------
 Center     Atomic      Atomic             Coordinates (Angstroms)
 Number     Number       Type             X           Y           Z
 ---------------------------------------------------------------------
      1          6           0        2.166359   -0.434115    0.260631
      2          6           0        1.031778   -0.167836    1.029605
      3          6           0        2.999650   -1.508160    0.574823
      4          6           0        1.544687   -2.053668    2.448237
      5          6           0        0.710287   -0.975684    2.128321
      6          6           0        2.668316   -2.300238    1.668705
      7          6           0       -1.057289    0.543732    5.050879
      8          6           0       -0.556282    1.508489    6.118143
      9          6           0       -0.501589   -0.673024    2.981272
     10          7           0       -0.140333    0.199462    4.097207
     11          8           0       -2.204574    0.114629    5.027252
     12          9           0        3.461131   -3.344036    1.983844
     13          1           0        2.402846    0.194468   -0.592893
     14          1           0        0.384771    0.666254    0.771593
     15          1           0        3.884257   -1.739736   -0.009377
     16          1           0        1.326208   -2.704150    3.289959
     17          1           0       -0.717647    2.542005    5.789223
     18          1           0       -1.134562    1.350322    7.030240
     19          1           0        0.509830    1.383414    6.338233
     20          1           0       -1.286264   -0.196297    2.380165
     21          1           0       -0.936782   -1.594542    3.384542
     22          1           0        0.796260    0.574510    4.130236
 ---------------------------------------------------------------------
                    Distance matrix (angstroms):
                    1          2          3          4          5
     1  C    0.000000
     2  C    1.396245   0.000000
     3  C    1.395228   2.424008   0.000000
     4  C    2.791962   2.414945   2.433964   0.000000
     5  C    2.429343   1.401125   2.817458   1.400222   0.000000
     6  C    2.391035   2.762941   1.390593   1.389607   2.408229
     7  C    5.856156   4.587066   6.379976   4.504499   3.738221
     8  C    6.745141   5.587953   7.243840   5.529127   4.867648
     9  C    3.817973   2.532871   4.329795   2.525382   1.512539
    10  N    4.521235   3.304381   5.018232   3.261133   2.445616
    11  O    6.490520   5.151208   7.038574   5.040812   4.253117
    12  F    3.621262   4.111031   2.359819   2.356579   3.632782
    13  H    1.086069   2.154899   2.149110   3.878018   3.411600
    14  H    2.155446   1.086689   3.406521   3.399194   2.154677
    15  H    2.174563   3.418625   1.085102   3.407640   3.902258
    16  H    3.877595   3.410099   3.406284   1.085981   2.171717
    17  H    6.909422   5.749581   7.577077   6.115599   5.274024
    18  H    7.740019   6.557854   8.181384   6.305575   5.730845
    19  H    6.556276   5.555208   6.912113   5.293064   4.829999
    20  H    4.058274   2.682935   4.832112   3.386554   2.158028
    21  H    4.553558   3.384737   4.837094   2.691682   2.161923
    22  H    4.227096   3.196946   4.672623   3.208829   2.533409
                    6          7          8          9         10
     6  C    0.000000
     7  C    5.779913   0.000000
     8  C    6.685950   1.523423   0.000000
     9  C    3.797230   2.464258   3.821250   0.000000
    10  N    4.476005   1.367048   2.443511   1.461865   0.000000
    11  O    6.391907   1.225133   2.418627   2.776074   2.265673
    12  F    1.348104   6.703548   7.535186   4.881835   5.476607
    13  H    3.377699   6.629229   7.451248   4.686464   5.335243
    14  H    3.849605   4.517392   5.493681   2.731663   3.399021
    15  H    2.146773   7.432314   8.235038   5.414564   6.068101
    16  H    2.143097   4.396661   5.411905   2.749836   3.351619
    17  H    7.203521   2.157221   1.096531   4.274070   2.946814
    18  H    7.518944   2.138791   1.091488   4.570418   3.303884
    19  H    6.327151   2.195042   1.095755   4.064615   2.616610
    20  H    4.535575   2.780789   4.172727   1.097412   2.101909
    21  H    4.054483   2.713562   4.152849   1.095999   2.088222
    22  H    4.222310   2.069825   2.579430   2.135620   1.009435
                   11         12         13         14         15
    11  O    0.000000
    12  F    7.302390   0.000000
    13  H    7.267787   4.503393   0.000000
    14  H    5.011949   5.197689   2.481336   0.000000
    15  H    8.116660   2.593404   2.505238   4.317998   0.000000
    16  H    4.840466   2.583271   4.963635   4.311391   4.284779
    17  H    2.946813   8.160182   7.481965   5.469038   8.551876
    18  H    2.585309   8.283930   8.483007   6.476649   9.181133
    19  H    3.270546   7.072458   7.282693   5.614040   7.837919
    20  H    2.819050   5.709911   4.754083   2.474643   5.901390
    21  H    2.688319   4.936023   5.493055   3.699352   5.897642
    22  H    3.165617   5.202263   5.003349   3.385000   5.659316
                   16         17         18         19         20
    16  H    0.000000
    17  H    6.160016   0.000000
    18  H    6.040184   1.770324   0.000000
    19  H    5.163973   1.774949   1.784375   0.000000
    20  H    3.733907   4.409456   4.902881   4.624689   0.000000
    21  H    2.522161   4.789731   4.690677   4.436800   1.756701
    22  H    3.425860   2.985831   3.569311   2.368885   2.827331
                   21         22
    21  H    0.000000
    22  H    2.874766   0.000000
 Stoichiometry    C9H10FNO
 Framework group  C1[X(C9H10FNO)]
 Deg. of freedom    60
 Full point group                 C1      NOp   1
 Largest Abelian subgroup         C1      NOp   1
 Largest concise Abelian subgroup C1      NOp   1
                         Standard orientation:                         
 ---------------------------------------------------------------------
 Center     Atomic      Atomic             Coordinates (Angstroms)
 Number     Number       Type             X           Y           Z
 ---------------------------------------------------------------------
      1          6           0        2.423669    1.648207    0.376292
      2          6           0        1.099986    1.593601   -0.064596
      3          6           0        3.199452    0.490063    0.435667
      4          6           0        1.303808   -0.789690   -0.396766
      5          6           0        0.529380    0.375358   -0.456313
      6          6           0        2.619088   -0.711656    0.044772
      7          6           0       -3.134944   -0.165312    0.048366
      8          6           0       -3.935387   -0.391370    1.324690
      9          6           0       -0.912970    0.307350   -0.906617
     10          7           0       -1.792557    0.022676    0.225786
     11          8           0       -3.649434   -0.132978   -1.063032
     12          9           0        3.356030   -1.839477    0.092924
     13          1           0        2.858242    2.598773    0.671445
     14          1           0        0.506753    2.502689   -0.114873
     15          1           0        4.231776    0.505931    0.769586
     16          1           0        0.897584   -1.751513   -0.695487
     17          1           0       -4.265622    0.572056    1.731058
     18          1           0       -4.823503   -0.976860    1.080154
     19          1           0       -3.361399   -0.909869    2.100818
     20          1           0       -1.213998    1.251274   -1.378532
     21          1           0       -1.051051   -0.474745   -1.661915
     22          1           0       -1.392177    0.003336    1.152220
 ---------------------------------------------------------------------
 Rotational constants (GHZ):      2.0773148      0.4014327      0.3733682
 Standard basis: 6-31G(d) (6D, 7F)
 There are   200 symmetry adapted basis functions of A   symmetry.
 Integral buffers will be    131072 words long.
 Raffenetti 2 integral format.
 Two-electron integral symmetry is turned on.
   200 basis functions,   376 primitive gaussians,   200 cartesian basis functions
    44 alpha electrons       44 beta electrons
       nuclear repulsion energy       650.5643821558 Hartrees.
 NAtoms=   22 NActive=   22 NUniq=   22 SFac= 1.00D+00 NAtFMM=   60 NAOKFM=F Big=F
 One-electron integrals computed using PRISM.
 NBasis=   200 RedAO= T  NBF=   200
 NBsUse=   200 1.00D-06 NBFU=   200
 Initial guess read from the read-write file.
 B after Tr=     0.000000    0.000000    0.000000
         Rot=    1.000000    0.000000    0.000000    0.000000 Ang=   0.00 deg.
 Initial guess orbital symmetries:
       Occupied  (A) (A) (A) (A) (A) (A) (A) (A) (A) (A) (A) (A)
                 (A) (A) (A) (A) (A) (A) (A) (A) (A) (A) (A) (A)
                 (A) (A) (A) (A) (A) (A) (A) (A) (A) (A) (A) (A)
                 (A) (A) (A) (A) (A) (A) (A) (A)
       Virtual   (A) (A) (A) (A) (A) (A) (A) (A) (A) (A) (A) (A)
                 (A) (A) (A) (A) (A) (A) (A) (A) (A) (A) (A) (A)
                 (A) (A) (A) (A) (A) (A) (A) (A) (A) (A) (A) (A)
                 (A) (A) (A) (A) (A) (A) (A) (A) (A) (A) (A) (A)
                 (A) (A) (A) (A) (A) (A) (A) (A) (A) (A) (A) (A)
                 (A) (A) (A) (A) (A) (A) (A) (A) (A) (A) (A) (A)
                 (A) (A) (A) (A) (A) (A) (A) (A) (A) (A) (A) (A)
                 (A) (A) (A) (A) (A) (A) (A) (A) (A) (A) (A) (A)
                 (A) (A) (A) (A) (A) (A) (A) (A) (A) (A) (A) (A)
                 (A) (A) (A) (A) (A) (A) (A) (A) (A) (A) (A) (A)
                 (A) (A) (A) (A) (A) (A) (A) (A) (A) (A) (A) (A)
                 (A) (A) (A) (A) (A) (A) (A) (A) (A) (A) (A) (A)
                 (A) (A) (A) (A) (A) (A) (A) (A) (A) (A) (A) (A)
 Harris functional with IExCor=  402 diagonalized for initial guess.
 ExpMin= 1.61D-01 ExpMax= 7.00D+03 ExpMxC= 1.05D+03 IAcc=3 IRadAn=         5 AccDes= 0.00D+00
 HarFok:  IExCor=  402 AccDes= 0.00D+00 IRadAn=         5 IDoV= 1
 ScaDFX=  1.000000  1.000000  1.000000  1.000000
 FoFCou: FMM=F IPFlag=           0 FMFlag=      100000 FMFlg1=           0
         NFxFlg=           0 DoJE=T BraDBF=F KetDBF=T FulRan=T
         Omega=  0.000000  0.000000  1.000000  0.000000  0.000000 ICntrl=     500 IOpCl=  0
         NMat0=    1 NMatS0=    1 NMatT0=    0 NMatD0=    1 NMtDS0=    0 NMtDT0=    0
         I1Cent=           4 NGrid=           0.
 Petite list used in FoFCou.
 Requested convergence on RMS density matrix=1.00D-08 within 128 cycles.
 Requested convergence on MAX density matrix=1.00D-06.
 Requested convergence on             energy=1.00D-06.
 No special actions if energy rises.
 Integral accuracy reduced to 1.0D-05 until final iterations.
 Initial convergence to 1.0D-05 achieved.  Increase integral accuracy.
 SCF Done:  E(RB3LYP) =  -578.807546344     A.U. after   10 cycles
             Convg  =    0.8446D-08             -V/T =  2.0090
 Calling FoFJK, ICntrl=      2127 FMM=F ISym2X=0 I1Cent= 0 IOpClX= 0 NMat=1 NMatS=1 NMatT=0.
 ***** Axes restored to original set *****
 -------------------------------------------------------------------
 Center     Atomic                   Forces (Hartrees/Bohr)
 Number     Number              X              Y              Z
 -------------------------------------------------------------------
      1        6          -0.000076597   -0.000061186    0.000113493
      2        6           0.000063712   -0.000159211   -0.000123942
      3        6           0.000108180   -0.000092338   -0.000055347
      4        6           0.000220632   -0.000329956    0.000381326
      5        6          -0.000305017    0.000092240   -0.000001326
      6        6          -0.000903639    0.001159711   -0.000251329
      7        6           0.000617311   -0.000749342    0.000115955
      8        6           0.000108347   -0.000021217    0.000039159
      9        6          -0.000186533   -0.000621631   -0.000736492
     10        7          -0.000285151    0.000403440    0.000881300
     11        8          -0.000051342    0.000545171   -0.000152527
     12        9           0.000638777   -0.000808421    0.000213893
     13        1           0.000024400    0.000138114   -0.000126114
     14        1          -0.000027840    0.000103464   -0.000022111
     15        1          -0.000058555   -0.000042611    0.000114860
     16        1           0.000086703   -0.000008877   -0.000066991
     17        1          -0.000177061   -0.000025390   -0.000051082
     18        1          -0.000061956   -0.000079794    0.000061562
     19        1          -0.000171658    0.000044707   -0.000256620
     20        1           0.000238423    0.000201386    0.000128546
     21        1           0.000063447    0.000146166   -0.000002213
     22        1           0.000135417    0.000165576   -0.000204001
 -------------------------------------------------------------------
 Cartesian Forces:  Max     0.001159711 RMS     0.000338334

 GradGradGradGradGradGradGradGradGradGradGradGradGradGradGradGradGradGrad
 Berny optimization.
 Using GEDIIS/GDIIS optimizer.
 Internal  Forces:  Max     0.001051510 RMS     0.000166905
 Search for a local minimum.
 Step number   3 out of a maximum of  114
 All quantities printed in internal units (Hartrees-Bohrs-Radians)
 Mixed Optimization -- En-DIIS/RFO-DIIS
 Swaping is turned off.
 Update second derivatives using D2CorX and points    1    2    3
 DE= -1.21D-04 DEPred=-1.04D-04 R= 1.16D+00
 SS=  1.41D+00  RLast= 5.84D-02 DXNew= 6.9210D-01 1.7509D-01
 Trust test= 1.16D+00 RLast= 5.84D-02 DXMaxT set to 4.12D-01
 ITU=  1  1  0
     Eigenvalues ---    0.00577   0.00705   0.01088   0.01321   0.01502
     Eigenvalues ---    0.01519   0.02071   0.02084   0.02101   0.02138
     Eigenvalues ---    0.02141   0.02148   0.02196   0.02201   0.02215
     Eigenvalues ---    0.05303   0.06563   0.07000   0.07451   0.09954
     Eigenvalues ---    0.13195   0.15218   0.15997   0.15999   0.16000
     Eigenvalues ---    0.16000   0.16000   0.16051   0.16174   0.21118
     Eigenvalues ---    0.21941   0.22037   0.22721   0.23484   0.24877
     Eigenvalues ---    0.24993   0.25005   0.28619   0.31964   0.33113
     Eigenvalues ---    0.33995   0.34081   0.34392   0.34424   0.34451
     Eigenvalues ---    0.34808   0.34993   0.35108   0.35219   0.40420
     Eigenvalues ---    0.41988   0.42051   0.45047   0.45452   0.46252
     Eigenvalues ---    0.46454   0.47116   0.50718   0.54729   0.91314
 En-DIIS/RFO-DIIS IScMMF=        0 using points:     3    2
 RFO step:  Lambda=-8.52800037D-06.
 DidBck=F Rises=F RFO-DIIS coefs:    1.19460   -0.19460
 Iteration  1 RMS(Cart)=  0.01268619 RMS(Int)=  0.00006354
 Iteration  2 RMS(Cart)=  0.00007941 RMS(Int)=  0.00001153
 Iteration  3 RMS(Cart)=  0.00000000 RMS(Int)=  0.00001153
 Variable       Old X    -DE/DX   Delta X   Delta X   Delta X     New X
                                  (DIIS)     (GDIIS)  (Total)
    R1        2.63852  -0.00008  -0.00026  -0.00029  -0.00055   2.63797
    R2        2.63660   0.00000   0.00016   0.00008   0.00024   2.63684
    R3        2.05237   0.00018   0.00010   0.00052   0.00062   2.05299
    R4        2.64774   0.00011   0.00003   0.00019   0.00022   2.64796
    R5        2.05355   0.00010  -0.00010   0.00016   0.00006   2.05361
    R6        2.62784  -0.00008   0.00010  -0.00019  -0.00009   2.62775
    R7        2.05055  -0.00010  -0.00025  -0.00043  -0.00068   2.04986
    R8        2.64604   0.00022   0.00015   0.00057   0.00072   2.64676
    R9        2.62598  -0.00020  -0.00030  -0.00064  -0.00094   2.62504
   R10        2.05221  -0.00006  -0.00015  -0.00030  -0.00045   2.05175
   R11        2.85828  -0.00028   0.00040  -0.00063  -0.00023   2.85806
   R12        2.54755   0.00105   0.00104   0.00278   0.00383   2.55137
   R13        2.87885  -0.00030  -0.00035  -0.00017  -0.00052   2.87833
   R14        2.58335  -0.00042  -0.00011  -0.00122  -0.00133   2.58201
   R15        2.31517  -0.00014  -0.00006  -0.00042  -0.00048   2.31469
   R16        2.07214   0.00002   0.00019   0.00026   0.00045   2.07259
   R17        2.06261   0.00010   0.00008   0.00025   0.00033   2.06294
   R18        2.07068  -0.00022  -0.00006  -0.00069  -0.00075   2.06992
   R19        2.76252   0.00053   0.00012   0.00256   0.00267   2.76520
   R20        2.07381  -0.00015  -0.00022  -0.00052  -0.00074   2.07307
   R21        2.07114  -0.00015  -0.00022  -0.00058  -0.00081   2.07033
   R22        1.90755   0.00018   0.00005   0.00014   0.00018   1.90774
    A1        2.10378  -0.00009   0.00022  -0.00019   0.00003   2.10381
    A2        2.09368   0.00001  -0.00005  -0.00005  -0.00010   2.09358
    A3        2.08571   0.00008  -0.00017   0.00024   0.00008   2.08579
    A4        2.10409   0.00003  -0.00002   0.00025   0.00023   2.10432
    A5        2.09374  -0.00004   0.00036   0.00010   0.00045   2.09419
    A6        2.08532   0.00001  -0.00034  -0.00034  -0.00068   2.08464
    A7        2.06384   0.00000  -0.00066  -0.00073  -0.00139   2.06245
    A8        2.12932   0.00009   0.00096   0.00151   0.00246   2.13179
    A9        2.09000  -0.00009  -0.00030  -0.00077  -0.00107   2.08893
   A10        2.08321  -0.00024  -0.00066  -0.00160  -0.00226   2.08095
   A11        2.11570   0.00021   0.00060   0.00156   0.00216   2.11786
   A12        2.08425   0.00003   0.00006   0.00004   0.00010   2.08436
   A13        2.07866   0.00005   0.00024   0.00045   0.00069   2.07935
   A14        2.10677  -0.00001  -0.00004  -0.00007  -0.00010   2.10667
   A15        2.09747  -0.00004  -0.00020  -0.00045  -0.00065   2.09682
   A16        2.13279   0.00024   0.00087   0.00183   0.00270   2.13549
   A17        2.07691  -0.00017  -0.00037  -0.00111  -0.00147   2.07544
   A18        2.07348  -0.00007  -0.00051  -0.00072  -0.00123   2.07226
   A19        2.01265   0.00015  -0.00100   0.00111   0.00005   2.01270
   A20        2.14515  -0.00027  -0.00127  -0.00144  -0.00278   2.14237
   A21        2.12525   0.00012   0.00230  -0.00002   0.00222   2.12747
   A22        1.91596  -0.00016  -0.00040  -0.00128  -0.00168   1.91427
   A23        1.89592  -0.00002  -0.00083  -0.00048  -0.00132   1.89460
   A24        1.96969  -0.00013   0.00033   0.00007   0.00040   1.97009
   A25        1.88523   0.00005  -0.00026  -0.00057  -0.00084   1.88439
   A26        1.88706   0.00012  -0.00028   0.00005  -0.00023   1.88683
   A27        1.90825   0.00015   0.00145   0.00220   0.00365   1.91190
   A28        1.93040   0.00002  -0.00085  -0.00055  -0.00140   1.92901
   A29        1.92936   0.00005   0.00091   0.00068   0.00157   1.93093
   A30        1.93627   0.00001   0.00107   0.00029   0.00135   1.93762
   A31        1.91300  -0.00010  -0.00135  -0.00078  -0.00213   1.91087
   A32        1.89554  -0.00008  -0.00047  -0.00132  -0.00178   1.89375
   A33        1.85759   0.00010   0.00071   0.00172   0.00242   1.86001
   A34        2.11423  -0.00010  -0.00127  -0.00111  -0.00238   2.11185
   A35        2.10129   0.00017   0.00210   0.00191   0.00401   2.10530
[...]
 8,-0.00001184,0.00002144,-0.00018471,-0.00048459,-0.00007162,0.0022443
 2,0.00060054,0.00001645,-0.00206075,0.00038490,0.00076891,-0.00090534,
 -0.13563050,0.24081474,0.00968087,-0.00109225,-0.00189715,-0.00361027,
 0.00112385,0.00143656,-0.02477198,0.04214283,-0.02294070,0.00185279,-0
 .00582912,0.01198077,0.00409306,0.00383537,-0.00152883,-0.04771916,0.1
 0375194,-0.12705038,0.00025024,0.00069102,-0.00128404,0.00000250,0.000
 00567,0.00009722,0.00054356,-0.00083554,-0.00046481,-0.00030624,-0.000
 09733,0.00112575,-0.00015926,-0.00048462,0.00058387,0.06556190,-0.1405
 4865,0.13946342,-0.09035876,-0.02503583,0.09608317,-0.00509264,-0.0109
 5046,0.02313187,0.00895940,0.00518484,-0.01438305,-0.00073332,0.000320
 05,-0.00066843,-0.00201986,0.00532279,0.00271184,0.00118146,0.00480102
 ,0.00097777,0.00005759,0.00025961,-0.00029997,0.00001578,-0.00001658,0
 .00002817,0.00020111,-0.00096030,0.00071010,-0.00023564,0.00018963,0.0
 0045775,-0.00003537,-0.00014094,0.00008941,0.00025137,0.00055371,-0.00
 104080,0.08920042,-0.02499853,-0.08018384,0.08933641,0.00454658,0.0078
 7157,-0.01262568,-0.01014584,-0.00440020,0.02077445,0.00024758,-0.0008
 7668,-0.00034571,0.00441854,0.00206165,0.00113313,0.00552745,0.0011384
 4,0.00294454,-0.00000135,-0.00002461,0.00000122,-0.00000346,0.00000899
 ,-0.00000414,0.00026756,0.00034952,-0.00045426,0.00000245,0.00009713,-
 0.00001159,-0.00000451,0.00001345,0.00000653,-0.00032857,-0.00087499,0
 .00152534,0.02444599,0.07759126,0.09597036,0.08943807,-0.26512039,0.00
 226600,0.00481329,-0.00680115,0.00653102,0.00353899,-0.00970759,-0.000
 49547,-0.00046365,0.00026207,0.00345346,0.00019227,0.00237827,-0.00008
 955,0.00374031,0.00287701,-0.00003787,-0.00009737,0.00023415,-0.000014
 58,0.00001762,-0.00003762,-0.00008700,0.00057362,-0.00010797,0.0000992
 9,0.00002993,-0.00028951,0.00005207,0.00003026,-0.00009894,0.00014697,
 0.00056629,-0.00095892,-0.10521609,-0.09874400,0.27825826,-0.00876930,
 0.01919916,-0.01536188,-0.10962152,0.10397911,-0.05524840,-0.00151327,
 0.00346148,0.00469408,0.00123223,0.00120868,0.00385696,0.00734501,-0.0
 0880704,0.00569347,-0.00064345,-0.00044280,0.00092815,-0.00012988,-0.0
 0036334,0.00029139,-0.00002095,0.00003960,-0.00004410,-0.00041180,-0.0
 0254599,0.00024953,0.00022674,-0.00014789,-0.00099058,0.00006230,0.000
 17715,-0.00003141,-0.00018905,-0.00023054,-0.00051458,-0.00038336,-0.0
 0192539,-0.00107536,0.11256425,0.00362868,-0.00699589,0.00677271,0.103
 76074,-0.19783005,0.10894771,0.00412660,0.00331707,0.00033301,0.000738
 93,0.00317684,0.00340354,0.00559002,-0.00566075,0.00412460,-0.00051921
 ,0.00040640,-0.00049163,-0.00005417,-0.00029714,-0.00004717,0.00000316
 ,0.00003136,-0.00002889,-0.00081568,-0.00197017,-0.00207632,0.00019964
 ,0.00032839,-0.00049712,-0.00002672,0.00013366,0.00003557,-0.00024594,
 -0.00058722,-0.00021247,-0.00160255,-0.00119692,-0.00165696,-0.1146837
 7,0.20658998,0.00599876,-0.01097356,0.00911143,-0.05493804,0.10929696,
 -0.12001320,0.00389334,0.00089638,0.00118793,0.00449003,0.00276894,-0.
 00261262,-0.01408495,0.02027298,-0.01005624,0.00110388,-0.00053611,-0.
 00087305,0.00010583,0.00021051,-0.00025287,-0.00006162,0.00002640,0.00
 000892,-0.00352411,-0.00039462,-0.00024583,0.00048320,-0.00035942,-0.0
 0010919,0.00005084,-0.00026584,0.00014527,-0.00052175,-0.00021011,-0.0
 0004505,-0.00156294,-0.00124132,-0.00023673,0.05780559,-0.11969123,0.1
 2337004,-0.00774921,0.00347623,0.00535351,0.00287611,0.00395722,-0.000
 22972,-0.24816954,0.10895523,0.09530746,0.00188801,0.00039319,0.003161
 98,0.00020250,-0.00060627,-0.00035794,-0.00756548,0.00786233,0.0018483
 0,0.00001820,-0.00005397,-0.00010085,0.00001285,0.00000091,0.00000840,
 -0.00021538,-0.00030790,-0.00016703,-0.00001980,0.00002607,-0.00001854
 ,-0.00004634,0.00003857,0.00007075,0.00006300,-0.00220630,-0.00159431,
 -0.00064700,-0.00181055,-0.00144808,-0.00030676,0.00030999,0.00045414,
 0.25990007,0.01823578,-0.00575259,-0.01110935,0.00358801,0.00058718,0.
 00529458,0.11001124,-0.09735689,-0.03529478,0.00089209,0.00170576,0.00
 367919,-0.00039645,-0.00083576,0.00038616,-0.00857009,0.00728867,0.004
 57047,-0.00001955,-0.00011117,0.00008999,0.00001201,0.00000317,-0.0000
 1799,-0.00020724,-0.00028048,-0.00014541,0.00000361,0.00006991,-0.0002
 3081,-0.00000876,0.00006244,-0.00002170,-0.00162544,-0.00068464,-0.002
 66096,-0.00214177,-0.00117867,-0.00159379,0.00111667,-0.00019120,-0.00
 036822,-0.12038368,0.09625521,-0.01487993,0.00572262,0.01017311,0.0004
 4592,0.00479939,0.00040968,0.09398895,-0.03423226,-0.09148989,0.002334
 97,0.00438768,-0.00335996,-0.00069278,0.00067691,-0.00097521,0.0242351
 8,-0.01403467,-0.00472224,0.00003984,0.00016192,0.00000928,-0.00000386
 ,-0.00000878,-0.00000999,-0.00021650,-0.00029624,-0.00006564,0.0000261
 8,-0.00001848,-0.00003675,0.00005376,-0.00015448,-0.00005942,-0.002427
 72,-0.00194132,0.00135324,-0.00098514,-0.00197728,-0.00031320,-0.00064
 280,0.00053113,0.00047680,-0.10243381,0.03708892,0.08873652,-0.0008459
 3,0.00056295,-0.00063404,0.00053025,0.00491115,-0.00006514,-0.00220513
 ,0.00471580,0.00236240,-0.09079847,-0.02741249,0.09738001,0.00972374,0
 .00464117,-0.01425982,-0.00445162,-0.01040980,0.02364592,0.00069202,0.
 00224193,-0.00062632,-0.00027414,-0.00017184,-0.00004661,0.00001303,-0
 .00144189,-0.00151764,0.00006853,-0.00041357,0.00056948,-0.00036398,-0
 .00156985,0.00018125,0.00090905,-0.00260427,-0.00238091,-0.00016231,-0
 .00036660,-0.00020188,0.00059040,0.00053202,-0.00072899,-0.00026589,-0
 .00046419,0.00115156,0.08741101,0.00029472,-0.00080071,-0.00027578,0.0
 0514815,-0.00014315,0.00316986,0.00433582,0.00127870,0.00084961,-0.027
 07361,-0.08336073,0.09393543,-0.01022964,-0.00402605,0.01975118,0.0054
 9065,0.00827604,-0.01136218,0.00012885,-0.00258617,-0.00015480,0.00005
 909,-0.00001191,-0.00004536,-0.00171554,-0.00070395,-0.00037249,-0.000
 18704,0.00016163,-0.00109744,-0.00054169,0.00131039,0.00033198,-0.0030
 3882,-0.00085279,-0.00131577,-0.00036929,-0.00028567,-0.00023621,-0.00
 031103,-0.00008226,0.00121259,0.00035413,0.00039226,-0.00064056,0.0276
 3011,0.08128780,-0.00039341,-0.00052590,0.00036084,-0.00019597,0.00347
 847,0.00209822,0.00286484,0.00045076,0.00181658,0.09698406,0.09402276,
 -0.26698309,0.00526293,0.00398723,-0.00851689,0.00255491,0.00606016,-0
 .00680590,0.00006939,-0.00144753,0.00054038,0.00009010,-0.00005351,-0.
 00000477,-0.00017859,-0.00156851,-0.00023274,-0.00017694,0.00046823,-0
 .00073077,0.00028281,0.00050823,-0.00103223,-0.00180734,-0.00180520,0.
 00002496,-0.00017704,-0.00025734,-0.00023031,0.00038280,0.00025869,-0.
 00027377,0.00007737,0.00028488,-0.00018909,-0.10484639,-0.10381103,0.2
 7993975,-0.00000212,0.00000125,0.00000038,0.00000460,0.00001526,-0.000
 00713,0.00000910,-0.00000118,0.00000212,0.00000687,-0.00000665,0.00002
 100,-0.00001857,0.00006190,0.00008538,0.00001282,-0.00001371,-0.000010
 03,0.00878318,-0.00166920,-0.00711509,-0.21371764,0.00812535,0.1348934
 5,-0.00045815,0.00030763,-0.00045333,-0.00068399,-0.00028088,-0.001115
 50,0.00011776,0.00088046,-0.00002925,-0.00000145,0.00000986,0.00000219
 ,-0.00000161,-0.00000129,0.00000084,-0.00000159,-0.00000419,0.00000222
 ,-0.00000265,-0.00000259,-0.00000235,-0.00001483,-0.00001002,-0.000005
 78,0.23042253,-0.00000022,0.00000713,-0.00000226,0.00002354,-0.0000066
 9,-0.00000245,0.00001403,-0.00000783,0.00000062,0.00001654,-0.00001932
 ,-0.00001370,-0.00004685,0.00001572,0.00007626,-0.00003784,0.00004273,
 -0.00001787,0.01735824,-0.00053944,-0.01081658,0.00789606,-0.04977248,
 -0.00719236,-0.00021818,0.00077684,-0.00042688,-0.00127984,-0.00159487
 ,-0.00108306,-0.00227596,0.00062582,0.00092649,0.00002710,-0.00003963,
 0.00001878,0.00000385,-0.00000041,-0.00000521,-0.00000848,-0.00000293,
 0.00000305,0.00000240,-0.00000204,-0.00000296,0.00000005,0.00003555,0.
 00001379,-0.00825543,0.04797372,-0.00001818,0.00001228,0.00000913,0.00
 005671,-0.00002841,-0.00001400,0.00002029,-0.00001742,0.00000565,0.000
 02740,0.00000884,-0.00004380,-0.00010043,0.00014783,0.00019480,-0.0000
 3368,0.00005081,-0.00003018,0.02340229,-0.00010995,-0.02023013,0.13545
 410,-0.00810625,-0.15017056,-0.00104087,0.00104910,-0.00064141,-0.0020
 6160,-0.00322726,-0.00267557,-0.00255660,0.00222523,0.00298456,0.00004
 088,-0.00006151,0.00003448,0.00000744,0.00000026,-0.00000712,-0.000006
 94,-0.00000564,0.00001419,0.00000149,-0.00000508,-0.00000136,0.0000382
 2,-0.00000692,-0.00002037,-0.14499099,0.00921890,0.16380786,0.00000746
 ,-0.00000396,0.00000059,-0.00000118,-0.00003563,0.00001013,0.00000438,
 -0.00000342,-0.00000756,0.00001545,-0.00000672,-0.00005889,-0.00002201
 ,-0.00000145,-0.00001334,-0.00004615,0.00005076,-0.00002131,-0.0047850
 9,0.00347418,-0.00236824,-0.20196330,0.08699768,-0.10253713,-0.0000067
 4,0.00023676,0.00010010,-0.00033077,-0.00074207,0.00008742,0.00150969,
 -0.00132973,0.00031993,0.00002386,-0.00004240,0.00002285,0.00000540,0.
 00000180,-0.00000166,-0.00000300,-0.00000002,0.00000196,0.00000394,0.0
 0000157,0.00000014,-0.00000503,0.00003597,0.00000331,-0.01938185,0.011
 37746,-0.01363500,0.21608555,-0.00000129,0.00002280,0.00000134,0.00006
 691,-0.00005083,-0.00001130,0.00000963,-0.00001821,0.00000268,0.000044
 46,0.00000203,-0.00001221,-0.00014185,0.00001510,-0.00014948,-0.000027
 69,0.00005839,-0.00004366,-0.01773104,0.00935045,-0.00873417,0.0860042
 8,-0.09764832,0.05695148,0.00073315,-0.00010704,-0.00029473,0.00007120
 ,-0.00084305,-0.00109115,0.00220163,-0.00087524,0.00017383,0.00002476,
 -0.00004046,0.00003459,0.00000666,-0.00000262,-0.00000417,-0.00000590,
 -0.00000378,-0.00000497,0.00000184,0.00000082,-0.00000009,-0.00007907,
 0.00000871,-0.00000344,0.00042650,-0.00090080,0.00043773,-0.09597723,0
 .10230100,0.00001787,0.00004039,0.00001870,0.00012501,-0.00010051,-0.0
 0001606,0.00004545,-0.00003035,-0.00000960,0.00013521,0.00005917,-0.00
 004010,-0.00038343,-0.00007442,-0.00036095,-0.00003104,0.00006174,-0.0
 0007496,-0.02228971,0.01330300,-0.01586091,-0.10421557,0.05799480,-0.1
 1035160,0.00152321,-0.00019550,-0.00025531,0.00009034,-0.00332895,-0.0
 0278811,0.00334673,-0.00018554,0.00180188,0.00006183,-0.00007177,0.000
 07030,0.00001472,-0.00000568,-0.00000957,-0.00001980,-0.00002018,0.000
 00262,-0.00000050,-0.00000713,-0.00000162,-0.00010044,-0.00005522,-0.0
 0001783,0.01623801,-0.00957531,0.01182023,0.11200166,-0.06095203,0.120
 47549,-0.00000869,0.00000109,-0.00000400,0.00000280,-0.00001682,0.0000
 0063,0.00000054,-0.00000699,0.00000100,0.00000616,-0.00003241,0.000017
 98,-0.00000034,0.00003509,0.00003794,-0.00002185,0.00003816,-0.0000219
 6,-0.00556105,-0.00568932,0.00559020,-0.06701162,-0.06386959,0.0183717
 6,-0.00003535,0.00003239,-0.00015337,-0.00025063,0.00103890,0.00018145
 ,0.00187127,-0.00231102,-0.00271468,0.00000844,-0.00001392,0.00000796,
 0.00000212,0.00000112,-0.00000100,0.00000189,0.00000540,-0.00000308,0.
 00000284,0.00000257,-0.00000146,-0.00004864,0.00002789,-0.00000056,-0.
 00515253,-0.02460351,0.00515228,0.00877724,0.02399680,-0.00572692,0.06
 628396,-0.00000555,0.00001710,-0.00001685,0.00003796,0.00000332,-0.000
 02074,0.00003080,-0.00001385,-0.00000120,0.00003039,-0.00007537,0.0000
 9068,-0.00007079,0.00002947,0.00005901,-0.00004416,0.00002934,-0.00003
 197,-0.00301679,-0.01566321,0.01382755,-0.06410048,-0.27831714,0.06431
 236,0.00015540,0.00031399,-0.00051815,0.00016710,0.00197303,0.00024178
 ,-0.00186854,-0.00217280,-0.00592376,0.00002007,-0.00000439,-0.0000059
 4,0.00000347,-0.00000185,-0.00001039,-0.00001048,0.00000390,-0.0000127
 8,0.00000540,-0.00000009,-0.00000803,-0.00008521,0.00006810,0.00003024
 ,0.00057932,0.00346086,-0.00060023,-0.00388112,-0.01128212,0.00277129,
 0.07143026,0.30086248,0.00000476,-0.00000350,-0.00001024,-0.00002818,0
 .00001063,0.00000350,-0.00000028,-0.00000135,0.00000024,0.00001374,-0.
 00004010,0.00005627,0.00004999,0.00001457,0.00005179,-0.00000724,0.000
 02013,-0.00002207,-0.00539728,-0.02237814,0.01380342,0.01965933,0.0675
 4343,-0.07200609,0.00024225,0.00023354,0.00054957,0.00021626,0.0012594
 0,-0.00065622,-0.00299586,-0.00624829,-0.00504821,-0.00000002,0.000003
 13,0.00000448,-0.00000189,0.00000026,0.00000241,0.00000155,0.00000397,
 -0.00000670,0.00000031,0.00000202,-0.00000370,-0.00007462,0.00003020,0
 .00000199,0.00279465,0.01937769,-0.00499660,0.00614939,0.01406845,-0.0
 0451654,-0.02050008,-0.07285173,0.07422381,-0.00008635,-0.00002878,0.0
 0009372,0.00131685,0.00044320,-0.00221596,-0.00002284,-0.00022327,0.00
 026212,-0.00415886,0.00139687,0.00352077,-0.01326647,0.02059223,-0.017
 80935,0.00060446,0.00080687,-0.00115042,-0.00152673,-0.00280445,0.0014
 0288,0.00042094,0.00001930,-0.00016295,-0.09823273,0.06683263,-0.06911
 057,-0.00012866,0.00094397,-0.00835572,0.00046671,0.00128521,0.0013832
 8,-0.00062837,0.00034643,0.00013984,-0.00000343,-0.00003621,-0.0000000
 7,-0.00003291,-0.00074081,0.00109238,0.00002072,-0.00005092,0.00006486
 ,-0.00006590,-0.00017498,-0.00006322,-0.00002213,-0.00004330,-0.000101
 58,-0.00001056,0.00001044,0.00001949,0.00001046,0.00001870,-0.00001970
 ,0.10334271,0.00021669,0.00002358,-0.00036903,-0.00140342,0.00014535,0
 .00070799,-0.00003174,0.00015525,-0.00019191,0.00311894,0.00008103,-0.
 00149577,0.00462828,-0.00848754,0.00895810,-0.00039634,-0.00000765,0.0
 0073783,-0.00315493,-0.00447770,-0.00035332,0.00119070,0.00000798,-0.0
 0056914,0.06889798,-0.15546799,0.11099053,-0.00856400,0.01401949,-0.02
 224446,0.00060200,0.00229601,0.00154338,0.00039166,-0.00046624,-0.0000
 6817,0.00005329,-0.00002076,-0.00003984,0.00019081,0.00060111,-0.00062
 949,0.00002309,0.00004033,-0.00005218,-0.00019532,0.00020185,-0.000205
 14,-0.00007320,-0.00017144,-0.00032350,-0.00001946,0.00004467,0.000080
 77,0.00000077,-0.00001163,0.00003404,-0.07692053,0.16330224,-0.0000577
 8,-0.00005654,0.00017277,0.00105359,-0.00148090,0.00048732,0.00003083,
 -0.00000402,-0.00000553,0.00208208,-0.00037319,-0.00067374,0.00620471,
 -0.00660112,0.00803285,0.00002065,-0.00043939,0.00018555,-0.00522119,-
 0.00453282,0.00081720,0.00126873,0.00030116,-0.00087738,-0.07154577,0.
 10669527,-0.15666660,-0.00877282,0.01336664,-0.03244111,0.00044937,0.0
 0126875,-0.00004045,0.00022501,-0.00029646,0.00000476,-0.00000799,0.00
 000726,-0.00000541,-0.00012965,0.00014961,0.00021917,-0.00000545,-0.00
 000412,0.00000527,0.00011216,-0.00002512,0.00002068,-0.00016111,-0.000
 22622,-0.00042536,-0.00004713,-0.00000550,0.00000203,-0.00003633,-0.00
 006311,0.00006741,0.07670275,-0.11147237,0.18440697,0.00031081,0.00010
 712,0.00102180,-0.00283752,0.00201551,-0.00053623,-0.00008369,-0.00001
 424,-0.00015684,0.00196442,-0.00056466,0.00060080,-0.01962154,-0.01714
 543,0.01049416,0.00009509,0.00034908,0.00076280,-0.00006300,-0.0025476
 1,0.00147479,0.00007852,-0.00004940,0.00006284,-0.16684601,-0.12462728
 ,0.03889730,-0.00374243,-0.00806639,-0.00280111,-0.00003975,0.00181897
 ,0.00178072,0.00003953,-0.00001709,-0.00011572,-0.00021370,0.00015639,
 0.00015858,-0.00008940,-0.00028586,-0.00002096,-0.00000861,0.00000034,
 -0.00005594,-0.00052244,0.00010300,-0.00073304,0.00001504,0.00002313,-
 0.00000984,-0.00000211,0.00004552,0.00000511,0.00004667,0.00011973,-0.
 00004778,0.01208271,0.01156885,-0.00233227,0.17943872,0.00003568,-0.00
 062542,-0.00052154,0.00108542,-0.00084068,-0.00006416,0.00038786,0.000
 18735,-0.00046586,0.00088929,0.00014468,-0.00052897,0.01070753,0.01239
 443,-0.00337110,-0.00068268,0.00037543,0.00009389,-0.00135159,-0.00215
 075,0.00238100,-0.00016998,-0.00043230,-0.00014507,-0.12325172,-0.1852
 2956,0.04606875,-0.01323319,-0.01997705,-0.00281608,0.00130603,0.00124
 051,0.00217094,0.00003885,-0.00008125,0.00007231,0.00009177,-0.0000877
 5,-0.00011798,0.00008698,0.00025126,-0.00004938,-0.00003369,-0.0000218
 4,-0.00001347,0.00003233,-0.00007582,0.00013664,0.00001632,0.00004420,
 -0.00005449,-0.00000990,0.00004735,-0.00000946,0.00003497,0.00013375,-
 0.00012918,-0.01180296,-0.01253702,0.00392281,0.13682519,0.20709525,-0
 .00023104,-0.00053976,-0.00053392,0.00149215,-0.00073162,-0.00013048,0
 .00005693,-0.00007984,0.00007692,-0.00123871,0.00033872,0.00033036,0.0
 0911783,0.00687424,-0.00350548,0.00010254,-0.00008705,-0.00065331,-0.0
 0276731,-0.00549134,0.00189292,0.00060382,0.00047657,0.00005828,0.0469
 4279,0.05510448,-0.06392319,-0.02207198,-0.02856208,0.00227981,0.00211
 701,0.00313745,-0.00110464,-0.00000105,-0.00004411,0.00007358,0.000105
 81,-0.00004161,-0.00006714,0.00028676,0.00017771,0.00040872,0.00008307
 ,0.00005366,0.00007393,0.00000997,0.00013802,0.00031504,0.00005405,0.0
 0011476,-0.00011261,-0.00000603,0.00006351,0.00004543,0.00006907,0.000
 34996,0.00039119,0.01446278,0.01407695,-0.00378908,-0.04762912,-0.0435
 8092,0.07335137,-0.00017103,-0.00000656,-0.00003511,-0.00004423,-0.000
 41508,0.00018722,-0.00002098,-0.00005189,0.00010497,-0.00057075,0.0001
 6522,-0.00025383,0.00133492,0.00066438,-0.00011421,-0.00000028,0.00018
 608,-0.00019535,-0.00808653,0.00277938,-0.00454743,-0.00237730,0.00057
 105,-0.00027138,-0.00481839,-0.00014360,0.00231070,-0.10888858,-0.1950
 3931,0.01844319,0.00671473,-0.00183280,0.00007547,0.00003224,-0.000074
 74,0.00005547,0.00001237,0.00000685,-0.00000996,0.00009341,0.00008372,
 -0.00003575,0.00000842,0.00000678,0.00000095,0.00008627,0.00004327,0.0
 0000577,0.00008724,0.00002722,0.00035461,0.00012482,0.00032029,-0.0008
 5723,0.00107634,0.00048451,-0.00005931,-0.00007962,-0.00012412,0.00016
 761,-0.00000131,-0.00100249,-0.00155931,0.11548823,0.00008416,-0.00011
 835,0.00000379,0.00005250,0.00018125,-0.00016107,-0.00001199,0.0000356
 2,-0.00006584,0.00035960,-0.00006787,0.00015955,-0.00013685,-0.0001355
 7,0.00011160,0.00011207,-0.00017752,0.00007462,-0.00328670,-0.01419071
 ,-0.00171523,0.00214630,-0.00003385,-0.00112799,-0.00445015,-0.0082165
 1,0.00371667,-0.18581982,-0.34157050,0.02208808,-0.00225810,0.00388757
 ,0.00308227,-0.00007434,0.00011163,-0.00005088,-0.00001894,0.00000296,
 0.00002894,0.00002299,-0.00002165,0.00004924,-0.00000424,0.00000962,0.
 00001222,-0.00005340,-0.00009182,-0.00002244,-0.00010551,0.00007529,-0
 .00060433,-0.00012308,-0.00007885,0.00030089,-0.00010183,0.00064709,-0
 .00094917,0.00013035,0.00072907,-0.00013060,0.00018515,0.00014524,-0.0
 0174769,0.19335182,0.35887785,0.00030746,-0.00007173,-0.00011265,0.000
 29795,0.00010057,0.00021383,0.00001428,0.00014480,-0.00025673,0.000564
 05,-0.00009104,0.00004907,-0.00117398,0.00060140,0.00062620,-0.0002405
 3,-0.00005040,0.00032070,0.01678611,0.02898982,0.00980125,-0.00038245,
 0.00110849,-0.00082796,-0.01525676,-0.02589485,0.00591199,0.01355419,0
 .01863847,-0.07307311,0.00083291,0.00407884,-0.00789071,-0.00001081,0.
 00006438,-0.00008350,0.00002530,-0.00002080,-0.00002056,-0.00012477,-0
 .00001062,-0.00021982,-0.00001055,0.00000945,-0.00000976,0.00003184,-0
 .00002001,-0.00008069,-0.00020372,-0.00038550,0.00049820,-0.00000120,-
 0.00042670,0.00006647,-0.00026683,-0.00161800,-0.00188971,-0.00015534,
 0.00088474,0.00050269,-0.00082007,-0.00297868,-0.00547768,-0.01376708,
 -0.02305264,0.07195248\\0.00001279,-0.00000757,0.00000105,-0.00001205,
 0.00000155,0.00000678,-0.00000108,0.00001156,-0.00001116,0.00001546,-0
 .00001706,-0.00000076,-0.00000084,0.00000728,0.00000075,-0.00001383,-0
 .00000117,0.00000912,-0.00000048,-0.00000829,0.00000327,0.00000123,0.0
 0000403,-0.00000465,0.00000506,-0.00000240,-0.00000476,-0.00000152,0.0
 0000114,-0.00000007,0.00000019,0.00000622,-0.00000142,0.00000278,0.000
 00039,-0.00000197,-0.00000119,0.00000072,-0.00000029,0.00000072,-0.000
 00064,-0.00000190,-0.00000045,-0.00000318,0.00000250,-0.00000364,0.000
 00457,-0.00000086,0.00000049,-0.00000144,0.00000049,-0.00000063,-0.000
 00064,0.00000150,0.00000013,0.00000015,0.00000273,-0.00000190,0.000000
 61,-0.00000033,-0.00000145,0.00000395,0.00000102,0.00000020,0.00000020
 ,-0.00000102\\\@


 LIFE IS A CONTINUAL STRUGGLE AGAINST THE TENDENCY TO PRODUCE ENTROPY.
 Job cpu time:  0 days  0 hours 48 minutes 12.4 seconds.
 File lengths (MBytes):  RWF=    120 Int=      0 D2E=      0 Chk=      4 Scr=      1
 Normal termination of Gaussian 09 at Fri Feb 16 18:15:45 2018.
