 Entering Gaussian System, Link 0=g09
 Initial command:
 /home/fb_chem/chemsoft/lx24-amd64/Gaussian_09_C.01_NBO_3.1_64_istanbul-64/g09/l1.exe /local/2397426.1.parallel_long/Gau-8190.inp -scrdir=/local/2397426.1.parallel_long/
 Entering Link 1 = /home/fb_chem/chemsoft/lx24-amd64/Gaussian_09_C.01_NBO_3.1_64_istanbul-64/g09/l1.exe PID=      8191.
  
 Copyright (c) 1988,1990,1992,1993,1995,1998,2003,2009,2011,
            Gaussian, Inc.  All Rights Reserved.
  
 This is part of the Gaussian(R) 09 program.  It is based on
 the Gaussian(R) 03 system (copyright 2003, Gaussian, Inc.),
 the Gaussian(R) 98 system (copyright 1998, Gaussian, Inc.),
 the Gaussian(R) 94 system (copyright 1995, Gaussian, Inc.),
 the Gaussian 92(TM) system (copyright 1992, Gaussian, Inc.),
 the Gaussian 90(TM) system (copyright 1990, Gaussian, Inc.),
 the Gaussian 88(TM) system (copyright 1988, Gaussian, Inc.),
 the Gaussian 86(TM) system (copyright 1986, Carnegie Mellon
 University), and the Gaussian 82(TM) system (copyright 1983,
 Carnegie Mellon University). Gaussian is a federally registered
 trademark of Gaussian, Inc.
  
 This software contains proprietary and confidential information,
 including trade secrets, belonging to Gaussian, Inc.
  
 This software is provided under written license and may be
 used, copied, transmitted, or stored only in accord with that
 written license.
  
 The following legend is applicable only to US Government
 contracts under FAR:
  
                    RESTRICTED RIGHTS LEGEND
  
 Use, reproduction and disclosure by the US Government is
 subject to restrictions as set forth in subparagraphs (a)
 and (c) of the Commercial Computer Software - Restricted
 Rights clause in FAR 52.227-19.
  
 Gaussian, Inc.
 340 Quinnipiac St., Bldg. 40, Wallingford CT 06492
  
  
 ---------------------------------------------------------------
 Warning -- This program may not be used in any manner that
 competes with the business of Gaussian, Inc. or will provide
 assistance to any competitor of Gaussian, Inc.  The licensee
 of this program is prohibited from giving any competitor of
 Gaussian, Inc. access to this program.  By using this program,
 the user acknowledges that Gaussian, Inc. is engaged in the
 business of creating and licensing software in the field of
 computational chemistry and represents and warrants to the
 licensee that it is not a competitor of Gaussian, Inc. and that
 it will not use this program in any manner prohibited above.
 ---------------------------------------------------------------
  

 Cite this work as:
 Gaussian 09, Revision C.01,
 M. J. Frisch, G. W. Trucks, H. B. Schlegel, G. E. Scuseria, 
 M. A. Robb, J. R. Cheeseman, G. Scalmani, V. Barone, B. Mennucci, 
 G. A. Petersson, H. Nakatsuji, M. Caricato, X. Li, H. P. Hratchian, 
 A. F. Izmaylov, J. Bloino, G. Zheng, J. L. Sonnenberg, M. Hada, 
 M. Ehara, K. Toyota, R. Fukuda, J. Hasegawa, M. Ishida, T. Nakajima, 
 Y. Honda, O. Kitao, H. Nakai, T. Vreven, J. A. Montgomery, Jr., 
 J. E. Peralta, F. Ogliaro, M. Bearpark, J. J. Heyd, E. Brothers, 
 K. N. Kudin, V. N. Staroverov, T. Keith, R. Kobayashi, J. Normand, 
 K. Raghavachari, A. Rendell, J. C. Burant, S. S. Iyengar, J. Tomasi, 
 M. Cossi, N. Rega, J. M. Millam, M. Klene, J. E. Knox, J. B. Cross, 
 V. Bakken, C. Adamo, J. Jaramillo, R. Gomperts, R. E. Stratmann, 
 O. Yazyev, A. J. Austin, R. Cammi, C. Pomelli, J. W. Ochterski, 
 R. L. Martin, K. Morokuma, V. G. Zakrzewski, G. A. Voth, 
 P. Salvador, J. J. Dannenberg, S. Dapprich, A. D. Daniels, 
 O. Farkas, J. B. Foresman, J. V. Ortiz, J. Cioslowski, 
 and D. J. Fox, Gaussian, Inc., Wallingford CT, 2010.
 
 ******************************************
 Gaussian 09:  AM64L-G09RevC.01 23-Sep-2011
                16-Feb-2018 
 ******************************************
 %nprocs=4
 Will use up to    4 processors via shared memory.
 %chk=frag49-conf2.chk
 ---------------------------------------------------------
 #B3LYP/6-31G* Integral=(Grid=UltraFine) freq Opt pop=none
 ---------------------------------------------------------
 1/14=-1,18=20,19=15,26=3,38=1/1,3;
 2/9=110,12=2,17=6,18=5,40=1/2;
 3/5=1,6=6,7=1,11=2,16=1,25=1,30=1,71=1,74=-5,75=-5/1,2,3;
 4//1;
 5/5=2,38=5/2;
 7//1,2,3,16;
 1/14=-1,18=20,19=15/3(2);
 2/9=110/2;
 99//99;
 2/9=110/2;
 3/5=1,6=6,7=1,11=2,16=1,25=1,30=1,71=1,74=-5,75=-5/1,2,3;
 4/5=5,16=3/1;
 5/5=2,38=5/2;
 7//1,2,3,16;
 1/14=-1,18=20,19=15/3(-5);
 2/9=110/2;
 99/9=1/99;
 -----------------------------
 Optimization for frag49-conf2
 -----------------------------
 Charge =  0 Multiplicity = 1
 Symbolic Z-Matrix:
 C                    -5.07837   3.45529  -1.75089 
 C                    -2.55862   0.95246  -0.51418 
 C                    -5.19596   4.0631   -3.12162 
 C                    -1.1258   -0.65198   0.69471 
 C                    -3.77551   1.86912  -0.37272 
 N                    -2.23769   0.26313   0.6336 
 N                    -4.04445   2.56912  -1.61587 
 O                    -5.86405   3.71462  -0.8415 
 O                    -1.92079   0.83786  -1.56281 
 H                    -5.85735   3.44353  -3.73291 
 H                    -5.61358   5.07012  -3.03696 
 H                    -4.21813   4.13356  -3.60635 
 H                    -1.31985  -1.49343   0.02433 
 H                    -1.0192   -1.0081    1.72173 
 H                    -0.21397  -0.13821   0.37862 
 H                    -4.65541   1.27402  -0.10811 
 H                    -3.59075   2.60842   0.41322 
 H                    -2.81139   0.39283   1.46378 
 H                    -3.42976   2.37393  -2.40404 
 

 GradGradGradGradGradGradGradGradGradGradGradGradGradGradGradGradGradGrad
 Berny optimization.
 Initialization pass.
                           ----------------------------
                           !    Initial Parameters    !
                           ! (Angstroms and Degrees)  !
 --------------------------                            --------------------------
 ! Name  Definition              Value          Derivative Info.                !
 --------------------------------------------------------------------------------
 ! R1    R(1,3)                  1.5041         estimate D2E/DX2                !
 ! R2    R(1,7)                  1.3684         estimate D2E/DX2                !
 ! R3    R(1,8)                  1.2294         estimate D2E/DX2                !
 ! R4    R(2,5)                  1.5301         estimate D2E/DX2                !
 ! R5    R(2,6)                  1.3768         estimate D2E/DX2                !
 ! R6    R(2,9)                  1.2327         estimate D2E/DX2                !
 ! R7    R(3,10)                 1.0932         estimate D2E/DX2                !
 ! R8    R(3,11)                 1.0935         estimate D2E/DX2                !
 ! R9    R(3,12)                 1.0937         estimate D2E/DX2                !
 ! R10   R(4,6)                  1.4413         estimate D2E/DX2                !
 ! R11   R(4,13)                 1.0932         estimate D2E/DX2                !
 ! R12   R(4,14)                 1.0922         estimate D2E/DX2                !
 ! R13   R(4,15)                 1.0933         estimate D2E/DX2                !
 ! R14   R(5,7)                  1.4518         estimate D2E/DX2                !
 ! R15   R(5,16)                 1.0947         estimate D2E/DX2                !
 ! R16   R(5,17)                 1.0947         estimate D2E/DX2                !
 ! R17   R(6,18)                 1.0174         estimate D2E/DX2                !
 ! R18   R(7,19)                 1.0184         estimate D2E/DX2                !
 ! A1    A(3,1,7)              114.2485         estimate D2E/DX2                !
 ! A2    A(3,1,8)              122.6095         estimate D2E/DX2                !
 ! A3    A(7,1,8)              123.1249         estimate D2E/DX2                !
 ! A4    A(5,2,6)              114.0959         estimate D2E/DX2                !
 ! A5    A(5,2,9)              123.0835         estimate D2E/DX2                !
 ! A6    A(6,2,9)              122.8206         estimate D2E/DX2                !
 ! A7    A(1,3,10)             109.1406         estimate D2E/DX2                !
 ! A8    A(1,3,11)             109.3575         estimate D2E/DX2                !
 ! A9    A(1,3,12)             111.1043         estimate D2E/DX2                !
 ! A10   A(10,3,11)            109.5233         estimate D2E/DX2                !
 ! A11   A(10,3,12)            109.2462         estimate D2E/DX2                !
 ! A12   A(11,3,12)            108.449          estimate D2E/DX2                !
 ! A13   A(6,4,13)             109.0115         estimate D2E/DX2                !
 ! A14   A(6,4,14)             108.794          estimate D2E/DX2                !
 ! A15   A(6,4,15)             109.4369         estimate D2E/DX2                !
 ! A16   A(13,4,14)            110.0582         estimate D2E/DX2                !
 ! A17   A(13,4,15)            109.4174         estimate D2E/DX2                !
 ! A18   A(14,4,15)            110.1014         estimate D2E/DX2                !
 ! A19   A(2,5,7)              110.9174         estimate D2E/DX2                !
 ! A20   A(2,5,16)             109.6288         estimate D2E/DX2                !
 ! A21   A(2,5,17)             109.6786         estimate D2E/DX2                !
 ! A22   A(7,5,16)             108.6742         estimate D2E/DX2                !
 ! A23   A(7,5,17)             108.6871         estimate D2E/DX2                !
 ! A24   A(16,5,17)            109.2228         estimate D2E/DX2                !
 ! A25   A(2,6,4)              122.2113         estimate D2E/DX2                !
 ! A26   A(2,6,18)             119.0107         estimate D2E/DX2                !
 ! A27   A(4,6,18)             118.7722         estimate D2E/DX2                !
 ! A28   A(1,7,5)              122.4589         estimate D2E/DX2                !
 ! A29   A(1,7,19)             120.2524         estimate D2E/DX2                !
 ! A30   A(5,7,19)             117.2881         estimate D2E/DX2                !
 ! D1    D(7,1,3,10)            90.7065         estimate D2E/DX2                !
 ! D2    D(7,1,3,11)          -149.5            estimate D2E/DX2                !
 ! D3    D(7,1,3,12)           -29.8214         estimate D2E/DX2                !
 ! D4    D(8,1,3,10)           -87.8275         estimate D2E/DX2                !
 ! D5    D(8,1,3,11)            31.9661         estimate D2E/DX2                !
 ! D6    D(8,1,3,12)           151.6446         estimate D2E/DX2                !
 ! D7    D(3,1,7,5)           -179.3856         estimate D2E/DX2                !
 ! D8    D(3,1,7,19)             0.3294         estimate D2E/DX2                !
 ! D9    D(8,1,7,5)             -0.8602         estimate D2E/DX2                !
 ! D10   D(8,1,7,19)           178.8548         estimate D2E/DX2                !
 ! D11   D(6,2,5,7)            179.4893         estimate D2E/DX2                !
 ! D12   D(6,2,5,16)           -60.4947         estimate D2E/DX2                !
 ! D13   D(6,2,5,17)            59.4251         estimate D2E/DX2                !
 ! D14   D(9,2,5,7)             -0.5998         estimate D2E/DX2                !
 ! D15   D(9,2,5,16)           119.4161         estimate D2E/DX2                !
 ! D16   D(9,2,5,17)          -120.6641         estimate D2E/DX2                !
 ! D17   D(5,2,6,4)            179.8011         estimate D2E/DX2                !
 ! D18   D(5,2,6,18)             0.6826         estimate D2E/DX2                !
 ! D19   D(9,2,6,4)             -0.11           estimate D2E/DX2                !
 ! D20   D(9,2,6,18)          -179.2285         estimate D2E/DX2                !
 ! D21   D(13,4,6,2)           -64.7781         estimate D2E/DX2                !
 ! D22   D(13,4,6,18)          114.3425         estimate D2E/DX2                !
 ! D23   D(14,4,6,2)           175.1923         estimate D2E/DX2                !
 ! D24   D(14,4,6,18)           -5.6871         estimate D2E/DX2                !
 ! D25   D(15,4,6,2)            54.8564         estimate D2E/DX2                !
 ! D26   D(15,4,6,18)         -126.0231         estimate D2E/DX2                !
 ! D27   D(2,5,7,1)           -179.7142         estimate D2E/DX2                !
 ! D28   D(2,5,7,19)             0.5628         estimate D2E/DX2                !
 ! D29   D(16,5,7,1)            59.7025         estimate D2E/DX2                !
 ! D30   D(16,5,7,19)         -120.0205         estimate D2E/DX2                !
 ! D31   D(17,5,7,1)           -59.061          estimate D2E/DX2                !
 ! D32   D(17,5,7,19)          121.216          estimate D2E/DX2                !
 --------------------------------------------------------------------------------
 Trust Radius=3.00D-01 FncErr=1.00D-07 GrdErr=1.00D-06
 Number of steps in this run=     90 maximum allowed number of steps=    114.
 GradGradGradGradGradGradGradGradGradGradGradGradGradGradGradGradGradGrad

                          Input orientation:                          
 ---------------------------------------------------------------------
 Center     Atomic      Atomic             Coordinates (Angstroms)
 Number     Number       Type             X           Y           Z
 ---------------------------------------------------------------------
      1          6           0       -5.078373    3.455286   -1.750886
      2          6           0       -2.558625    0.952455   -0.514181
      3          6           0       -5.195958    4.063098   -3.121621
      4          6           0       -1.125803   -0.651976    0.694714
      5          6           0       -3.775510    1.869121   -0.372717
      6          7           0       -2.237689    0.263134    0.633605
      7          7           0       -4.044449    2.569124   -1.615868
      8          8           0       -5.864046    3.714620   -0.841496
      9          8           0       -1.920786    0.837858   -1.562810
     10          1           0       -5.857348    3.443526   -3.732908
     11          1           0       -5.613582    5.070124   -3.036956
     12          1           0       -4.218127    4.133560   -3.606346
     13          1           0       -1.319854   -1.493428    0.024331
     14          1           0       -1.019205   -1.008098    1.721734
     15          1           0       -0.213975   -0.138210    0.378617
     16          1           0       -4.655413    1.274022   -0.108111
     17          1           0       -3.590750    2.608419    0.413221
     18          1           0       -2.811391    0.392825    1.463779
     19          1           0       -3.429757    2.373926   -2.404035
 ---------------------------------------------------------------------
                    Distance matrix (angstroms):
                    1          2          3          4          5
     1  C    0.000000
     2  C    3.760682   0.000000
     3  C    1.504054   4.840492   0.000000
     4  C    6.202690   2.467510   7.304964   0.000000
     5  C    2.472392   1.530064   3.793110   3.810024   0.000000
     6  N    4.893374   1.376800   6.106783   1.441337   2.440649
     7  N    1.368397   2.456624   2.413550   4.922679   1.451811
     8  O    1.229441   4.320011   2.401406   6.624050   2.826235
     9  O    4.105686   1.232718   4.853742   2.819223   2.433069
    10  H    2.129636   5.239008   1.093150   7.665800   4.254842
    11  H    2.132634   5.714223   1.093471   8.173613   4.552263
    12  H    2.154718   4.736545   1.093652   7.138833   3.972398
    13  H    6.462788   2.794082   7.469684   1.093211   4.182658
    14  H    6.961159   3.348567   8.162131   1.092225   4.501370
    15  H    6.411737   2.735695   7.397487   1.093299   4.156731
    16  H    2.763244   2.159819   4.141543   4.100261   1.094710
    17  H    2.759269   2.160457   4.145828   4.096996   1.094713
    18  H    4.985172   2.071087   6.339003   2.127034   2.545917
    19  H    2.076987   2.520119   2.547095   4.905765   2.121468
                    6          7          8          9         10
     6  N    0.000000
     7  N    3.693521   0.000000
     8  O    5.219113   2.285333   0.000000
     9  O    2.292373   2.740445   4.934101   0.000000
    10  H    6.502558   2.921137   2.904100   5.195705   0.000000
    11  H    6.926530   3.276686   2.592329   5.807058   1.785942
    12  H    6.072851   2.537642   3.244835   4.507268   1.783034
    13  H    2.073439   5.159264   6.965853   2.883580   7.686301
    14  H    2.069966   5.752235   7.235102   3.874097   8.542699
    15  H    2.078826   5.097074   6.946674   2.763160   7.847365
    16  H    2.723495   2.079398   2.820490   3.128030   4.392100
    17  H    2.716561   2.079564   2.822387   3.135022   4.798464
    18  H    1.017419   3.967485   5.066292   3.186137   6.752050
    19  H    3.886351   1.018409   3.188221   2.311744   2.967010
                   11         12         13         14         15
    11  H    0.000000
    12  H    1.774444   0.000000
    13  H    8.419489   7.296903   0.000000
    14  H    8.983219   8.065866   1.790841   0.000000
    15  H    8.243097   7.082456   1.784685   1.791386   0.000000
    16  H    4.889439   4.539364   4.336160   4.666735   4.685902
    17  H    4.696335   4.344718   4.704610   4.626472   4.352905
    18  H    7.070079   6.455863   2.802614   2.289335   2.864637
    19  H    3.526920   2.272309   5.030416   5.854129   4.939154
                   16         17         18         19
    16  H    0.000000
    17  H    1.784912   0.000000
    18  H    2.578326   2.572923   0.000000
    19  H    2.825472   2.831579   4.389433   0.000000
 Stoichiometry    C5H10N2O2
 Framework group  C1[X(C5H10N2O2)]
 Deg. of freedom    51
 Full point group                 C1      NOp   1
 Largest Abelian subgroup         C1      NOp   1
 Largest concise Abelian subgroup C1      NOp   1
                         Standard orientation:                         
 ---------------------------------------------------------------------
 Center     Atomic      Atomic             Coordinates (Angstroms)
 Number     Number       Type             X           Y           Z
 ---------------------------------------------------------------------
      1          6           0        2.369379   -0.184760   -0.009576
      2          6           0       -1.374415    0.171074    0.001024
      3          6           0        3.410822    0.900363   -0.000611
      4          6           0       -3.831873   -0.051402   -0.002477
      5          6           0       -0.064451   -0.619552    0.002405
      6          7           0       -2.505086   -0.614503   -0.004595
      7          7           0        1.080062    0.273648   -0.003699
      8          8           0        2.657596   -1.379848    0.005314
      9          8           0       -1.416814    1.403051    0.006225
     10          1           0        3.669442    1.140414    1.034024
     11          1           0        4.302490    0.551323   -0.528606
     12          1           0        3.044223    1.802141   -0.499087
     13          1           0       -3.988459    0.487666    0.935604
     14          1           0       -4.558249   -0.861870   -0.094543
     15          1           0       -3.934165    0.641970   -0.841569
     16          1           0       -0.014589   -1.247046    0.898036
     17          1           0       -0.017219   -1.256256   -0.886851
     18          1           0       -2.402677   -1.626724    0.003247
     19          1           0        0.891341    1.274408    0.000899
 ---------------------------------------------------------------------
 Rotational constants (GHZ):      4.9757545      0.6640140      0.5924598
 Standard basis: 6-31G(d) (6D, 7F)
 There are   155 symmetry adapted basis functions of A   symmetry.
 Integral buffers will be    131072 words long.
 Raffenetti 2 integral format.
 Two-electron integral symmetry is turned on.
   155 basis functions,   292 primitive gaussians,   155 cartesian basis functions
    35 alpha electrons       35 beta electrons
       nuclear repulsion energy       446.1153292653 Hartrees.
 NAtoms=   19 NActive=   19 NUniq=   19 SFac= 1.00D+00 NAtFMM=   60 NAOKFM=F Big=F
 One-electron integrals computed using PRISM.
 NBasis=   155 RedAO= T  NBF=   155
 NBsUse=   155 1.00D-06 NBFU=   155
 Harris functional with IExCor=  402 diagonalized for initial guess.
 ExpMin= 1.61D-01 ExpMax= 5.48D+03 ExpMxC= 8.25D+02 IAcc=3 IRadAn=         5 AccDes= 0.00D+00
 HarFok:  IExCor=  402 AccDes= 0.00D+00 IRadAn=         5 IDoV= 1
 ScaDFX=  1.000000  1.000000  1.000000  1.000000
 FoFCou: FMM=F IPFlag=           0 FMFlag=      100000 FMFlg1=           0
         NFxFlg=           0 DoJE=T BraDBF=F KetDBF=T FulRan=T
         Omega=  0.000000  0.000000  1.000000  0.000000  0.000000 ICntrl=     500 IOpCl=  0
         NMat0=    1 NMatS0=    1 NMatT0=    0 NMatD0=    1 NMtDS0=    0 NMtDT0=    0
         I1Cent=           4 NGrid=           0.
 Petite list used in FoFCou.
 Initial guess orbital symmetries:
       Occupied  (A) (A) (A) (A) (A) (A) (A) (A) (A) (A) (A) (A)
                 (A) (A) (A) (A) (A) (A) (A) (A) (A) (A) (A) (A)
                 (A) (A) (A) (A) (A) (A) (A) (A) (A) (A) (A)
       Virtual   (A) (A) (A) (A) (A) (A) (A) (A) (A) (A) (A) (A)
                 (A) (A) (A) (A) (A) (A) (A) (A) (A) (A) (A) (A)
                 (A) (A) (A) (A) (A) (A) (A) (A) (A) (A) (A) (A)
                 (A) (A) (A) (A) (A) (A) (A) (A) (A) (A) (A) (A)
                 (A) (A) (A) (A) (A) (A) (A) (A) (A) (A) (A) (A)
                 (A) (A) (A) (A) (A) (A) (A) (A) (A) (A) (A) (A)
                 (A) (A) (A) (A) (A) (A) (A) (A) (A) (A) (A) (A)
                 (A) (A) (A) (A) (A) (A) (A) (A) (A) (A) (A) (A)
                 (A) (A) (A) (A) (A) (A) (A) (A) (A) (A) (A) (A)
                 (A) (A) (A) (A) (A) (A) (A) (A) (A) (A) (A) (A)
 The electronic state of the initial guess is 1-A.
 Requested convergence on RMS density matrix=1.00D-08 within 128 cycles.
 Requested convergence on MAX density matrix=1.00D-06.
 Requested convergence on             energy=1.00D-06.
 No special actions if energy rises.
 Integral accuracy reduced to 1.0D-05 until final iterations.
 Initial convergence to 1.0D-05 achieved.  Increase integral accuracy.
 SCF Done:  E(RB3LYP) =  -456.532940886     A.U. after   14 cycles
             Convg  =    0.8040D-08             -V/T =  2.0094
 Calling FoFJK, ICntrl=      2127 FMM=F ISym2X=0 I1Cent= 0 IOpClX= 0 NMat=1 NMatS=1 NMatT=0.
 ***** Axes restored to original set *****
 -------------------------------------------------------------------
 Center     Atomic                   Forces (Hartrees/Bohr)
 Number     Number              X              Y              Z
 -------------------------------------------------------------------
      1        6          -0.000939441   -0.003711497    0.010677730
      2        6           0.007408176   -0.007406275    0.002438212
      3        6           0.003297844    0.005423145   -0.004539589
      4        6           0.000999573   -0.001276523   -0.003062118
      5        6          -0.002232897    0.004835813   -0.010241224
      6        7          -0.015605416    0.016302135   -0.004150586
      7        7           0.004233459   -0.001116364   -0.003473114
      8        8           0.004968182   -0.003210763   -0.000453822
      9        8          -0.006063886    0.001699131    0.009167075
     10        1          -0.001310887    0.001029186   -0.002659041
     11        1          -0.001858836   -0.002124895   -0.000220500
     12        1          -0.000342272   -0.000526947   -0.003620641
     13        1           0.004859560   -0.003479711    0.000088102
     14        1           0.001114953   -0.000601215   -0.000921657
     15        1           0.002475705   -0.002894984   -0.000041530
     16        1          -0.000965489   -0.000174802    0.005706501
     17        1          -0.002242360   -0.001491747    0.004743126
     18        1           0.002832139    0.000174091   -0.006132435
     19        1          -0.000628106   -0.001447778    0.006695511
 -------------------------------------------------------------------
 Cartesian Forces:  Max     0.016302135 RMS     0.004969143

 GradGradGradGradGradGradGradGradGradGradGradGradGradGradGradGradGradGrad
 Berny optimization.
 Internal  Forces:  Max     0.016747302 RMS     0.004311446
 Search for a local minimum.
 Step number   1 out of a maximum of   90
 All quantities printed in internal units (Hartrees-Bohrs-Radians)
 Mixed Optimization -- RFO/linear search
 Second derivative matrix not updated -- first step.
 ITU=  0
     Eigenvalues ---    0.00368   0.00712   0.01006   0.01018   0.01145
     Eigenvalues ---    0.01277   0.01463   0.01488   0.01999   0.02110
     Eigenvalues ---    0.05224   0.06569   0.07333   0.07521   0.07798
     Eigenvalues ---    0.07845   0.09683   0.13085   0.15999   0.16000
     Eigenvalues ---    0.16000   0.16000   0.16000   0.16000   0.16000
     Eigenvalues ---    0.16000   0.22000   0.22000   0.22046   0.24992
     Eigenvalues ---    0.25000   0.25000   0.25000   0.29417   0.31956
     Eigenvalues ---    0.34274   0.34274   0.34394   0.34415   0.34434
     Eigenvalues ---    0.34444   0.34451   0.34557   0.38009   0.39403
     Eigenvalues ---    0.44593   0.44752   0.49692   0.51286   0.89963
     Eigenvalues ---    0.91319
 RFO step:  Lambda=-5.21290725D-03 EMin= 3.68254792D-03
 Linear search not attempted -- first point.
 Iteration  1 RMS(Cart)=  0.05355453 RMS(Int)=  0.00074507
 Iteration  2 RMS(Cart)=  0.00142904 RMS(Int)=  0.00019400
 Iteration  3 RMS(Cart)=  0.00000063 RMS(Int)=  0.00019400
 Variable       Old X    -DE/DX   Delta X   Delta X   Delta X     New X
                                 (Linear)    (Quad)   (Total)
    R1        2.84225   0.01161   0.00000   0.03576   0.03576   2.87801
    R2        2.58590  -0.00482   0.00000  -0.00931  -0.00931   2.57659
    R3        2.32331  -0.00419   0.00000  -0.00456  -0.00456   2.31875
    R4        2.89140  -0.00284   0.00000  -0.00948  -0.00948   2.88192
    R5        2.60177  -0.01675   0.00000  -0.03335  -0.03335   2.56842
    R6        2.32950  -0.01109   0.00000  -0.01226  -0.01226   2.31724
    R7        2.06575   0.00170   0.00000   0.00485   0.00485   2.07061
    R8        2.06636  -0.00126   0.00000  -0.00362  -0.00362   2.06274
    R9        2.06670   0.00126   0.00000   0.00362   0.00362   2.07033
   R10        2.72373   0.01236   0.00000   0.03097   0.03097   2.75470
   R11        2.06587   0.00176   0.00000   0.00504   0.00504   2.07091
   R12        2.06401  -0.00056   0.00000  -0.00160  -0.00160   2.06241
   R13        2.06604   0.00072   0.00000   0.00205   0.00205   2.06809
   R14        2.74353  -0.00618   0.00000  -0.01603  -0.01603   2.72749
   R15        2.06870   0.00225   0.00000   0.00647   0.00647   2.07517
   R16        2.06871   0.00202   0.00000   0.00580   0.00580   2.07451
   R17        1.92264  -0.00658   0.00000  -0.01453  -0.01453   1.90811
   R18        1.92451  -0.00528   0.00000  -0.01171  -0.01171   1.91280
    A1        1.99401   0.00497   0.00000   0.01946   0.01946   2.01347
    A2        2.13994   0.00236   0.00000   0.00923   0.00923   2.14917
    A3        2.14893  -0.00734   0.00000  -0.02878  -0.02879   2.12015
    A4        1.99135   0.00333   0.00000   0.01305   0.01304   2.00439
    A5        2.14821  -0.00254   0.00000  -0.00997  -0.00998   2.13824
    A6        2.14362  -0.00079   0.00000  -0.00307  -0.00308   2.14054
    A7        1.90486   0.00236   0.00000   0.01010   0.00996   1.91483
    A8        1.90865  -0.00136   0.00000  -0.00897  -0.00905   1.89960
    A9        1.93914   0.00437   0.00000   0.03140   0.03122   1.97036
   A10        1.91154  -0.00247   0.00000  -0.02509  -0.02511   1.88643
   A11        1.90671  -0.00312   0.00000  -0.01724  -0.01746   1.88925
   A12        1.89279   0.00011   0.00000   0.00894   0.00882   1.90161
   A13        1.90261   0.00757   0.00000   0.04769   0.04725   1.94986
   A14        1.89881  -0.00005   0.00000  -0.00187  -0.00194   1.89687
   A15        1.91003   0.00390   0.00000   0.02328   0.02291   1.93294
   A16        1.92088  -0.00353   0.00000  -0.02067  -0.02081   1.90007
   A17        1.90969  -0.00501   0.00000  -0.02723  -0.02794   1.88176
   A18        1.92163  -0.00269   0.00000  -0.02003  -0.02002   1.90161
   A19        1.93587  -0.01292   0.00000  -0.05266  -0.05224   1.88363
   A20        1.91338   0.00281   0.00000   0.00739   0.00790   1.92128
   A21        1.91425   0.00307   0.00000   0.00847   0.00891   1.92316
   A22        1.89672   0.00610   0.00000   0.03858   0.03845   1.93517
   A23        1.89695   0.00570   0.00000   0.03473   0.03458   1.93153
   A24        1.90630  -0.00467   0.00000  -0.03626  -0.03679   1.86951
   A25        2.13299  -0.00263   0.00000  -0.01167  -0.01167   2.12132
   A26        2.07713  -0.00017   0.00000  -0.00315  -0.00315   2.07398
   A27        2.07297   0.00279   0.00000   0.01479   0.01479   2.08775
   A28        2.13731  -0.00321   0.00000  -0.01427  -0.01428   2.12303
   A29        2.09880   0.00582   0.00000   0.03265   0.03263   2.13144
   A30        2.04706  -0.00261   0.00000  -0.01841  -0.01842   2.02865
    D1        1.58313   0.00092   0.00000   0.01374   0.01380   1.59693
    D2       -2.60927  -0.00148   0.00000  -0.01612  -0.01617  -2.62544
    D3       -0.52048   0.00051   0.00000   0.00879   0.00874  -0.51174
    D4       -1.53288   0.00106   0.00000   0.01808   0.01818  -1.51470
    D5        0.55791  -0.00134   0.00000  -0.01178  -0.01180   0.54611
    D6        2.64670   0.00065   0.00000   0.01313   0.01311   2.65981
    D7       -3.13087   0.00065   0.00000   0.02781   0.02786  -3.10301
    D8        0.00575   0.00047   0.00000   0.01936   0.01926   0.02501
    D9       -0.01501   0.00067   0.00000   0.02408   0.02418   0.00917
   D10        3.12161   0.00049   0.00000   0.01563   0.01559   3.13719
   D11        3.13268  -0.00017   0.00000  -0.00428  -0.00428   3.12840
   D12       -1.05583   0.00106   0.00000   0.01517   0.01523  -1.04060
   D13        1.03716  -0.00104   0.00000  -0.01958  -0.01962   1.01754
   D14       -0.01047  -0.00006   0.00000   0.00259   0.00258  -0.00789
   D15        2.08420   0.00117   0.00000   0.02204   0.02209   2.10629
   D16       -2.10599  -0.00094   0.00000  -0.01271  -0.01277  -2.11875
   D17        3.13812  -0.00005   0.00000  -0.00109  -0.00108   3.13705
   D18        0.01191  -0.00002   0.00000   0.00096   0.00096   0.01288
   D19       -0.00192  -0.00015   0.00000  -0.00793  -0.00793  -0.00985
   D20       -3.12813  -0.00013   0.00000  -0.00588  -0.00589  -3.13402
   D21       -1.13059  -0.00020   0.00000  -0.00247  -0.00268  -1.13327
   D22        1.99565  -0.00025   0.00000  -0.00467  -0.00489   1.99076
   D23        3.05768  -0.00037   0.00000  -0.00455  -0.00460   3.05308
   D24       -0.09926  -0.00042   0.00000  -0.00675  -0.00681  -0.10607
   D25        0.95742   0.00059   0.00000   0.00701   0.00729   0.96471
   D26       -2.19952   0.00054   0.00000   0.00481   0.00508  -2.19444
   D27       -3.13660  -0.00010   0.00000  -0.00406  -0.00403  -3.14064
   D28        0.00982   0.00005   0.00000   0.00402   0.00394   0.01377
   D29        1.04201   0.00049   0.00000  -0.00546  -0.00497   1.03704
   D30       -2.09475   0.00065   0.00000   0.00261   0.00301  -2.09174
   D31       -1.03081  -0.00064   0.00000  -0.00383  -0.00420  -1.03500
   D32        2.11562  -0.00049   0.00000   0.00425   0.00378   2.11940
         Item               Value     Threshold  Converged?
 Maximum Force            0.016747     0.000450     NO 
 RMS     Force            0.004311     0.000300     NO 
 Maximum Displacement     0.144896     0.001800     NO 
 RMS     Displacement     0.053529     0.001200     NO 
 Predicted change in Energy=-2.678264D-03
 GradGradGradGradGradGradGradGradGradGradGradGradGradGradGradGradGradGrad

                          Input orientation:                          
 ---------------------------------------------------------------------
 Center     Atomic      Atomic             Coordinates (Angstroms)
 Number     Number       Type             X           Y           Z
 ---------------------------------------------------------------------
      1          6           0       -5.046694    3.450822   -1.751409
      2          6           0       -2.599077    0.976042   -0.481639
      3          6           0       -5.168486    4.045072   -3.148366
      4          6           0       -1.128712   -0.640585    0.645183
      5          6           0       -3.814385    1.883999   -0.325419
      6          7           0       -2.262697    0.275327    0.633321
      7          7           0       -4.025440    2.563642   -1.581101
      8          8           0       -5.824075    3.715598   -0.839723
      9          8           0       -1.971106    0.890199   -1.531364
     10          1           0       -5.844829    3.431082   -3.753489
     11          1           0       -5.598118    5.045429   -3.069639
     12          1           0       -4.206719    4.110796   -3.668901
     13          1           0       -1.285721   -1.489145   -0.030273
     14          1           0       -0.994617   -1.017819    1.660475
     15          1           0       -0.213461   -0.128543    0.332444
     16          1           0       -4.695698    1.290085   -0.048927
     17          1           0       -3.645578    2.607217    0.483030
     18          1           0       -2.824372    0.384954    1.465220
     19          1           0       -3.380854    2.335214   -2.327360
 ---------------------------------------------------------------------
                    Distance matrix (angstroms):
                    1          2          3          4          5
     1  C    0.000000
     2  C    3.705088   0.000000
     3  C    1.522976   4.809599   0.000000
     4  C    6.150922   2.458696   7.257146   0.000000
     5  C    2.450911   1.525045   3.804321   3.811618   0.000000
     6  N    4.849881   1.359150   6.079124   1.457723   2.432025
     7  N    1.363471   2.400791   2.440802   4.859469   1.443328
     8  O    1.227028   4.246645   2.422433   6.574778   2.767330
     9  O    4.008048   1.226230   4.774009   2.791107   2.416530
    10  H    2.155397   5.221794   1.095718   7.626831   4.274088
    11  H    2.141162   5.679076   1.091557   8.130575   4.550504
    12  H    2.194971   4.750772   1.095569   7.117659   4.036263
    13  H    6.442864   2.829449   7.444859   1.095877   4.226033
    14  H    6.930298   3.337428   8.135048   1.091378   4.507263
    15  H    6.365095   2.752091   7.354413   1.094384   4.177292
    16  H    2.773162   2.163719   4.173728   4.114932   1.098132
    17  H    2.769028   2.164828   4.192102   4.112070   1.097784
    18  H    4.968396   2.047048   6.338495   2.144634   2.536465
    19  H    2.085982   2.421819   2.606395   4.771115   2.097453
                    6          7          8          9         10
     6  N    0.000000
     7  N    3.639686   0.000000
     8  O    5.166114   2.260914   0.000000
     9  O    2.269130   2.650127   4.827693   0.000000
    10  H    6.483407   2.963427   2.927697   5.138060   0.000000
    11  H    6.898610   3.293681   2.606153   5.726033   1.770490
    12  H    6.082693   2.604891   3.282723   4.465342   1.775548
    13  H    2.123252   5.131881   6.952784   2.895566   7.671795
    14  H    2.082138   5.702680   7.209708   3.844723   8.522223
    15  H    2.110214   5.043877   6.901477   2.756978   7.815247
    16  H    2.722993   2.102082   2.789570   3.127448   4.430367
    17  H    2.715264   2.099246   2.779215   3.132058   4.843920
    18  H    1.009730   3.933105   5.040255   3.156398   6.755515
    19  H    3.776115   1.012211   3.176138   2.170039   3.050565
                   11         12         13         14         15
    11  H    0.000000
    12  H    1.780069   0.000000
    13  H    8.398522   7.289113   0.000000
    14  H    8.962655   8.063655   1.779191   0.000000
    15  H    8.206016   7.066036   1.769899   1.778955   0.000000
    16  H    4.903231   4.615162   4.399138   4.684707   4.716821
    17  H    4.730619   4.451310   4.755269   4.642720   4.391638
    18  H    7.069558   6.492456   2.848893   2.313850   2.892009
    19  H    3.579456   2.373705   4.928682   5.730601   4.814254
                   16         17         18         19
    16  H    0.000000
    17  H    1.766512   0.000000
    18  H    2.571724   2.564669   0.000000
    19  H    2.830612   2.835905   4.300797   0.000000
 Stoichiometry    C5H10N2O2
 Framework group  C1[X(C5H10N2O2)]
 Deg. of freedom    51
 Full point group                 C1      NOp   1
 Largest Abelian subgroup         C1      NOp   1
 Largest concise Abelian subgroup C1      NOp   1
                         Standard orientation:                         
 ---------------------------------------------------------------------
 Center     Atomic      Atomic             Coordinates (Angstroms)
 Number     Number       Type             X           Y           Z
 ---------------------------------------------------------------------
      1          6           0        2.341489   -0.171857   -0.014818
      2          6           0       -1.350794    0.135485    0.001482
      3          6           0        3.392759    0.929699    0.014541
      4          6           0       -3.806554    0.015391    0.004060
      5          6           0       -0.057578   -0.672794    0.007690
      6          7           0       -2.488729   -0.607742    0.003680
      7          7           0        1.046918    0.256091   -0.013650
      8          8           0        2.621346   -1.366521   -0.007337
      9          8           0       -1.361607    1.361609   -0.010469
     10          1           0        3.661165    1.156838    1.052309
     11          1           0        4.289211    0.575136   -0.497470
     12          1           0        3.053238    1.855679   -0.462490
     13          1           0       -3.987867    0.580050    0.925598
     14          1           0       -4.562908   -0.766287   -0.085453
     15          1           0       -3.908678    0.706935   -0.837970
     16          1           0       -0.015631   -1.310225    0.900896
     17          1           0       -0.021931   -1.337308   -0.865398
     18          1           0       -2.412730   -1.614467    0.020486
     19          1           0        0.804956    1.238955   -0.015995
 ---------------------------------------------------------------------
 Rotational constants (GHZ):      5.0211941      0.6767288      0.6031080
 Standard basis: 6-31G(d) (6D, 7F)
 There are   155 symmetry adapted basis functions of A   symmetry.
 Integral buffers will be    131072 words long.
 Raffenetti 2 integral format.
 Two-electron integral symmetry is turned on.
   155 basis functions,   292 primitive gaussians,   155 cartesian basis functions
    35 alpha electrons       35 beta electrons
       nuclear repulsion energy       448.4242157859 Hartrees.
 NAtoms=   19 NActive=   19 NUniq=   19 SFac= 1.00D+00 NAtFMM=   60 NAOKFM=F Big=F
 One-electron integrals computed using PRISM.
 NBasis=   155 RedAO= T  NBF=   155
 NBsUse=   155 1.00D-06 NBFU=   155
 Initial guess read from the read-write file.
 B after Tr=     0.000000    0.000000    0.000000
         Rot=    1.000000    0.000000    0.000000    0.000000 Ang=   0.00 deg.
 Initial guess orbital symmetries:
       Occupied  (A) (A) (A) (A) (A) (A) (A) (A) (A) (A) (A) (A)
                 (A) (A) (A) (A) (A) (A) (A) (A) (A) (A) (A) (A)
                 (A) (A) (A) (A) (A) (A) (A) (A) (A) (A) (A)
       Virtual   (A) (A) (A) (A) (A) (A) (A) (A) (A) (A) (A) (A)
                 (A) (A) (A) (A) (A) (A) (A) (A) (A) (A) (A) (A)
                 (A) (A) (A) (A) (A) (A) (A) (A) (A) (A) (A) (A)
                 (A) (A) (A) (A) (A) (A) (A) (A) (A) (A) (A) (A)
                 (A) (A) (A) (A) (A) (A) (A) (A) (A) (A) (A) (A)
                 (A) (A) (A) (A) (A) (A) (A) (A) (A) (A) (A) (A)
                 (A) (A) (A) (A) (A) (A) (A) (A) (A) (A) (A) (A)
                 (A) (A) (A) (A) (A) (A) (A) (A) (A) (A) (A) (A)
                 (A) (A) (A) (A) (A) (A) (A) (A) (A) (A) (A) (A)
                 (A) (A) (A) (A) (A) (A) (A) (A) (A) (A) (A) (A)
 Harris functional with IExCor=  402 diagonalized for initial guess.
 ExpMin= 1.61D-01 ExpMax= 5.48D+03 ExpMxC= 8.25D+02 IAcc=3 IRadAn=         5 AccDes= 0.00D+00
 HarFok:  IExCor=  402 AccDes= 0.00D+00 IRadAn=         5 IDoV= 1
 ScaDFX=  1.000000  1.000000  1.000000  1.000000
 FoFCou: FMM=F IPFlag=           0 FMFlag=      100000 FMFlg1=           0
         NFxFlg=           0 DoJE=T BraDBF=F KetDBF=T FulRan=T
         Omega=  0.000000  0.000000  1.000000  0.000000  0.000000 ICntrl=     500 IOpCl=  0
         NMat0=    1 NMatS0=    1 NMatT0=    0 NMatD0=    1 NMtDS0=    0 NMtDT0=    0
         I1Cent=           4 NGrid=           0.
 Petite list used in FoFCou.
 Requested convergence on RMS density matrix=1.00D-08 within 128 cycles.
 Requested convergence on MAX density matrix=1.00D-06.
 Requested convergence on             energy=1.00D-06.
 No special actions if energy rises.
 Integral accuracy reduced to 1.0D-05 until final iterations.
 Initial convergence to 1.0D-05 achieved.  Increase integral accuracy.
 SCF Done:  E(RB3LYP) =  -456.535368913     A.U. after   12 cycles
             Convg  =    0.5572D-08             -V/T =  2.0093
 Calling FoFJK, ICntrl=      2127 FMM=F ISym2X=0 I1Cent= 0 IOpClX= 0 NMat=1 NMatS=1 NMatT=0.
 ***** Axes restored to original set *****
 -------------------------------------------------------------------
 Center     Atomic                   Forces (Hartrees/Bohr)
 Number     Number              X              Y              Z
 -------------------------------------------------------------------
      1        6           0.000662125   -0.002302236    0.002107350
      2        6           0.002603854   -0.003161278    0.004564749
      3        6           0.001144735    0.000896400    0.000467011
      4        6          -0.000195709    0.000308656    0.000769762
      5        6          -0.000316104    0.002476180   -0.005712213
      6        7           0.001183220   -0.000461077   -0.002125307
      7        7          -0.002749822    0.002837271   -0.001083771
      8        8          -0.001041928    0.001337853   -0.000819902
      9        8           0.000856385   -0.000109202   -0.002390395
     10        1          -0.000367032   -0.000179669    0.000016321
     11        1          -0.000663814    0.000028813    0.000369527
     12        1          -0.000134163   -0.000825896    0.000199641
     13        1          -0.001124658    0.000649042   -0.000148759
     14        1          -0.000056510   -0.000099392    0.000545832
     15        1          -0.000575728    0.000692326   -0.000116782
     16        1          -0.000671835    0.000427401    0.000933143
     17        1          -0.000853212   -0.000008775    0.000910279
     18        1           0.000595897   -0.000926411    0.000520268
     19        1           0.001704300   -0.001580005    0.000993245
 -------------------------------------------------------------------
 Cartesian Forces:  Max     0.005712213 RMS     0.001555375

 GradGradGradGradGradGradGradGradGradGradGradGradGradGradGradGradGradGrad
 Berny optimization.
 Using GEDIIS/GDIIS optimizer.
 Internal  Forces:  Max     0.004303791 RMS     0.001020036
 Search for a local minimum.
 Step number   2 out of a maximum of   90
 All quantities printed in internal units (Hartrees-Bohrs-Radians)
 Mixed Optimization -- RFO/linear search
 Update second derivatives using D2CorX and points    1    2
 DE= -2.43D-03 DEPred=-2.68D-03 R= 9.07D-01
 SS=  1.41D+00  RLast= 1.62D-01 DXNew= 5.0454D-01 4.8616D-01
 Trust test= 9.07D-01 RLast= 1.62D-01 DXMaxT set to 4.86D-01
 ITU=  1  0
 Use linear search instead of GDIIS.
     Eigenvalues ---    0.00368   0.00712   0.01006   0.01023   0.01145
     Eigenvalues ---    0.01262   0.01479   0.01484   0.01999   0.02110
     Eigenvalues ---    0.05447   0.06365   0.07049   0.07444   0.07497
     Eigenvalues ---    0.07711   0.09332   0.12841   0.15044   0.15999
     Eigenvalues ---    0.16000   0.16000   0.16000   0.16000   0.16000
     Eigenvalues ---    0.16894   0.21873   0.22000   0.22725   0.24725
     Eigenvalues ---    0.24997   0.25000   0.26153   0.29962   0.32816
     Eigenvalues ---    0.34186   0.34274   0.34400   0.34424   0.34436
     Eigenvalues ---    0.34438   0.34483   0.34612   0.37648   0.40885
     Eigenvalues ---    0.44657   0.44912   0.49160   0.51209   0.90882
     Eigenvalues ---    0.91458
 RFO step:  Lambda=-3.29047818D-04 EMin= 3.68261440D-03
 Quartic linear search produced a step of -0.06800.
 Iteration  1 RMS(Cart)=  0.00910401 RMS(Int)=  0.00005491
 Iteration  2 RMS(Cart)=  0.00007233 RMS(Int)=  0.00002090
 Iteration  3 RMS(Cart)=  0.00000000 RMS(Int)=  0.00002090
 Variable       Old X    -DE/DX   Delta X   Delta X   Delta X     New X
                                 (Linear)    (Quad)   (Total)
    R1        2.87801  -0.00100  -0.00243   0.00181  -0.00062   2.87739
    R2        2.57659  -0.00067   0.00063  -0.00244  -0.00181   2.57478
    R3        2.31875   0.00034   0.00031  -0.00025   0.00006   2.31881
    R4        2.88192   0.00430   0.00064   0.01236   0.01300   2.89492
    R5        2.56842  -0.00058   0.00227  -0.00547  -0.00320   2.56522
    R6        2.31724   0.00249   0.00083   0.00098   0.00181   2.31905
    R7        2.07061   0.00032  -0.00033   0.00150   0.00117   2.07177
    R8        2.06274   0.00031   0.00025   0.00037   0.00062   2.06336
    R9        2.07033  -0.00026  -0.00025  -0.00023  -0.00048   2.06985
   R10        2.75470  -0.00248  -0.00211  -0.00180  -0.00390   2.75079
   R11        2.07091  -0.00025  -0.00034  -0.00001  -0.00035   2.07055
   R12        2.06241   0.00054   0.00011   0.00123   0.00134   2.06374
   R13        2.06809  -0.00012  -0.00014  -0.00007  -0.00020   2.06788
   R14        2.72749  -0.00165   0.00109  -0.00614  -0.00505   2.72245
   R15        2.07517   0.00054  -0.00044   0.00233   0.00189   2.07705
   R16        2.07451   0.00053  -0.00039   0.00221   0.00182   2.07633
   R17        1.90811   0.00000   0.00099  -0.00192  -0.00093   1.90719
   R18        1.91280   0.00071   0.00080  -0.00006   0.00074   1.91354
    A1        2.01347  -0.00088  -0.00132  -0.00059  -0.00194   2.01153
    A2        2.14917  -0.00170  -0.00063  -0.00500  -0.00565   2.14351
    A3        2.12015   0.00258   0.00196   0.00593   0.00787   2.12802
    A4        2.00439   0.00133  -0.00089   0.00670   0.00578   2.01017
    A5        2.13824  -0.00114   0.00068  -0.00555  -0.00490   2.13333
    A6        2.14054  -0.00019   0.00021  -0.00108  -0.00090   2.13964
    A7        1.91483  -0.00027  -0.00068  -0.00170  -0.00237   1.91245
    A8        1.89960  -0.00034   0.00062  -0.00252  -0.00191   1.89769
    A9        1.97036  -0.00037  -0.00212   0.00279   0.00068   1.97104
   A10        1.88643   0.00001   0.00171  -0.00495  -0.00325   1.88318
   A11        1.88925   0.00014   0.00119  -0.00268  -0.00148   1.88776
   A12        1.90161   0.00086  -0.00060   0.00879   0.00820   1.90981
   A13        1.94986  -0.00170  -0.00321  -0.00427  -0.00746   1.94239
   A14        1.89687   0.00035   0.00013   0.00252   0.00266   1.89953
   A15        1.93294  -0.00098  -0.00156  -0.00282  -0.00437   1.92857
   A16        1.90007   0.00072   0.00142   0.00165   0.00308   1.90315
   A17        1.88176   0.00112   0.00190   0.00125   0.00317   1.88492
   A18        1.90161   0.00056   0.00136   0.00185   0.00322   1.90483
   A19        1.88363   0.00252   0.00355   0.00690   0.01039   1.89402
   A20        1.92128  -0.00039  -0.00054   0.00159   0.00099   1.92227
   A21        1.92316  -0.00047  -0.00061   0.00147   0.00080   1.92396
   A22        1.93517  -0.00070  -0.00261   0.00311   0.00048   1.93565
   A23        1.93153  -0.00053  -0.00235   0.00421   0.00184   1.93337
   A24        1.86951  -0.00049   0.00250  -0.01730  -0.01477   1.85474
   A25        2.12132  -0.00012   0.00079  -0.00206  -0.00127   2.12005
   A26        2.07398   0.00121   0.00021   0.00648   0.00669   2.08067
   A27        2.08775  -0.00109  -0.00101  -0.00447  -0.00548   2.08227
   A28        2.12303  -0.00040   0.00097  -0.00358  -0.00261   2.12042
   A29        2.13144   0.00252  -0.00222   0.01865   0.01643   2.14787
   A30        2.02865  -0.00212   0.00125  -0.01507  -0.01382   2.01483
    D1        1.59693   0.00024  -0.00094   0.02169   0.02072   1.61765
    D2       -2.62544  -0.00011   0.00110   0.01324   0.01432  -2.61112
    D3       -0.51174   0.00050  -0.00059   0.02444   0.02382  -0.48792
    D4       -1.51470   0.00002  -0.00124   0.00875   0.00752  -1.50718
    D5        0.54611  -0.00033   0.00080   0.00030   0.00113   0.54724
    D6        2.65981   0.00028  -0.00089   0.01150   0.01063   2.67044
    D7       -3.10301   0.00001  -0.00189   0.00046  -0.00147  -3.10448
    D8        0.02501   0.00000  -0.00131  -0.00005  -0.00139   0.02363
    D9        0.00917   0.00014  -0.00164   0.01296   0.01134   0.02051
   D10        3.13719   0.00014  -0.00106   0.01245   0.01142  -3.13457
   D11        3.12840   0.00012   0.00029   0.00394   0.00422   3.13262
   D12       -1.04060   0.00060  -0.00104   0.01299   0.01195  -1.02865
   D13        1.01754  -0.00052   0.00133  -0.00638  -0.00506   1.01248
   D14       -0.00789  -0.00005  -0.00018  -0.00947  -0.00964  -0.01753
   D15        2.10629   0.00044  -0.00150  -0.00042  -0.00191   2.10438
   D16       -2.11875  -0.00069   0.00087  -0.01979  -0.01892  -2.13767
   D17        3.13705  -0.00008   0.00007  -0.00728  -0.00722   3.12982
   D18        0.01288   0.00000  -0.00007  -0.00335  -0.00342   0.00946
   D19       -0.00985   0.00009   0.00054   0.00614   0.00668  -0.00317
   D20       -3.13402   0.00016   0.00040   0.01007   0.01049  -3.12353
   D21       -1.13327   0.00015   0.00018   0.00110   0.00128  -1.13200
   D22        1.99076   0.00010   0.00033  -0.00276  -0.00242   1.98835
   D23        3.05308   0.00008   0.00031   0.00004   0.00035   3.05343
   D24       -0.10607   0.00004   0.00046  -0.00381  -0.00334  -0.10941
   D25        0.96471  -0.00024  -0.00050  -0.00211  -0.00262   0.96210
   D26       -2.19444  -0.00029  -0.00035  -0.00596  -0.00631  -2.20075
   D27       -3.14064   0.00000   0.00027  -0.00215  -0.00188   3.14067
   D28        0.01377  -0.00003  -0.00027  -0.00191  -0.00218   0.01159
   D29        1.03704  -0.00071   0.00034  -0.01035  -0.01006   1.02698
   D30       -2.09174  -0.00074  -0.00020  -0.01012  -0.01035  -2.10210
   D31       -1.03500   0.00069   0.00029   0.00653   0.00685  -1.02816
   D32        2.11940   0.00066  -0.00026   0.00676   0.00655   2.12595
         Item               Value     Threshold  Converged?
 Maximum Force            0.004304     0.000450     NO 
 RMS     Force            0.001020     0.000300     NO 
 Maximum Displacement     0.029772     0.001800     NO 
 RMS     Displacement     0.009080     0.001200     NO 
 Predicted change in Energy=-1.781955D-04
 GradGradGradGradGradGradGradGradGradGradGradGradGradGradGradGradGradGrad

                          Input orientation:                          
 ---------------------------------------------------------------------
 Center     Atomic      Atomic             Coordinates (Angstroms)
 Number     Number       Type             X           Y           Z
 ---------------------------------------------------------------------
      1          6           0       -5.050600    3.447850   -1.753633
      2          6           0       -2.587884    0.976850   -0.477450
      3          6           0       -5.172776    4.046956   -3.148124
      4          6           0       -1.128045   -0.643114    0.649207
      5          6           0       -3.811474    1.887524   -0.334969
      6          7           0       -2.257933    0.274563    0.636379
      7          7           0       -4.023763    2.567924   -1.586959
      8          8           0       -5.827797    3.718104   -0.843355
      9          8           0       -1.959477    0.884473   -1.527479
     10          1           0       -5.860584    3.440827   -3.749356
     11          1           0       -5.596092    5.049837   -3.063004
     12          1           0       -4.214195    4.099747   -3.675430
     13          1           0       -1.292337   -1.485995   -0.031304
     14          1           0       -0.995411   -1.024894    1.663754
     15          1           0       -0.213686   -0.129541    0.336751
     16          1           0       -4.694030    1.294663   -0.056227
     17          1           0       -3.655605    2.608865    0.479043
     18          1           0       -2.819888    0.377871    1.468303
     19          1           0       -3.369063    2.336878   -2.324082
 ---------------------------------------------------------------------
                    Distance matrix (angstroms):
                    1          2          3          4          5
     1  C    0.000000
     2  C    3.714761   0.000000
     3  C    1.522650   4.820759   0.000000
     4  C    6.155978   2.454541   7.264732   0.000000
     5  C    2.445947   1.531927   3.798702   3.817528   0.000000
     6  N    4.856017   1.357458   6.086849   1.455658   2.441035
     7  N    1.362515   2.413353   2.438238   4.867893   1.440656
     8  O    1.227060   4.259742   2.418503   6.582981   2.770387
     9  O    4.022076   1.227188   4.790938   2.786173   2.420349
    10  H    2.153842   5.242815   1.096336   7.643484   4.274300
    11  H    2.139715   5.685387   1.091885   8.133489   4.541725
    12  H    2.194960   4.756516   1.095316   7.121905   4.026760
    13  H    6.436908   2.818350   7.442173   1.095690   4.221244
    14  H    6.937473   3.335822   8.144214   1.092086   4.517442
    15  H    6.368922   2.742962   7.360710   1.094275   4.178975
    16  H    2.764877   2.171240   4.167031   4.119328   1.099130
    17  H    2.763105   2.172183   4.186438   4.122241   1.098746
    18  H    4.978124   2.049038   6.348990   2.139079   2.552270
    19  H    2.094574   2.422801   2.618549   4.768958   2.086676
                    6          7          8          9         10
     6  N    0.000000
     7  N    3.649780   0.000000
     8  O    5.176053   2.265040   0.000000
     9  O    2.267895   2.664362   4.843697   0.000000
    10  H    6.499154   2.968473   2.919383   5.166268   0.000000
    11  H    6.901593   3.287982   2.598854   5.738734   1.769167
    12  H    6.086928   2.597009   3.281769   4.476096   1.774891
    13  H    2.116068   5.129816   6.950718   2.881446   7.678956
    14  H    2.082798   5.713702   7.220360   3.841754   8.538989
    15  H    2.105236   5.049124   6.907624   2.747974   7.831427
    16  H    2.730362   2.100855   2.788919   3.132191   4.427874
    17  H    2.725290   2.098948   2.774450   3.142692   4.840812
    18  H    1.009239   3.947185   5.054547   3.157794   6.771373
    19  H    3.775193   1.012603   3.185234   2.175084   3.075352
                   11         12         13         14         15
    11  H    0.000000
    12  H    1.785322   0.000000
    13  H    8.392296   7.281307   0.000000
    14  H    8.967211   8.070279   1.781572   0.000000
    15  H    8.206984   7.070258   1.771700   1.781484   0.000000
    16  H    4.894462   4.604060   4.393654   4.692384   4.717655
    17  H    4.719104   4.449090   4.755352   4.656648   4.400672
    18  H    7.075827   6.500342   2.838350   2.309690   2.886202
    19  H    3.586895   2.376573   4.917721   5.730494   4.808290
                   16         17         18         19
    16  H    0.000000
    17  H    1.758399   0.000000
    18  H    2.584010   2.579610   0.000000
    19  H    2.825759   2.830829   4.303659   0.000000
 Stoichiometry    C5H10N2O2
 Framework group  C1[X(C5H10N2O2)]
 Deg. of freedom    51
 Full point group                 C1      NOp   1
 Largest Abelian subgroup         C1      NOp   1
 Largest concise Abelian subgroup C1      NOp   1
                         Standard orientation:                         
 ---------------------------------------------------------------------
 Center     Atomic      Atomic             Coordinates (Angstroms)
 Number     Number       Type             X           Y           Z
 ---------------------------------------------------------------------
      1          6           0        2.343874   -0.172018   -0.010310
      2          6           0       -1.358126    0.135580   -0.005051
      3          6           0        3.397137    0.927274    0.015330
      4          6           0       -3.809397    0.009587    0.007836
      5          6           0       -0.051886   -0.664674    0.006417
      6          7           0       -2.492311   -0.610248    0.002510
      7          7           0        1.051951    0.260825   -0.015621
      8          8           0        2.628312   -1.365654   -0.007964
      9          8           0       -1.373905    1.362651   -0.011100
     10          1           0        3.676847    1.143864    1.053021
     11          1           0        4.288461    0.571043   -0.505105
     12          1           0        3.053202    1.858732   -0.447067
     13          1           0       -3.979942    0.573593    0.931605
     14          1           0       -4.567272   -0.772079   -0.077459
     15          1           0       -3.910892    0.701104   -0.834151
     16          1           0       -0.008573   -1.305587    0.898292
     17          1           0       -0.012011   -1.339478   -0.859777
     18          1           0       -2.419902   -1.616674    0.023178
     19          1           0        0.797736    1.240965   -0.023584
 ---------------------------------------------------------------------
 Rotational constants (GHZ):      5.0281514      0.6743682      0.6013107
 Standard basis: 6-31G(d) (6D, 7F)
 There are   155 symmetry adapted basis functions of A   symmetry.
 Integral buffers will be    131072 words long.
 Raffenetti 2 integral format.
 Two-electron integral symmetry is turned on.
   155 basis functions,   292 primitive gaussians,   155 cartesian basis functions
    35 alpha electrons       35 beta electrons
       nuclear repulsion energy       448.1351173456 Hartrees.
 NAtoms=   19 NActive=   19 NUniq=   19 SFac= 1.00D+00 NAtFMM=   60 NAOKFM=F Big=F
 One-electron integrals computed using PRISM.
 NBasis=   155 RedAO= T  NBF=   155
 NBsUse=   155 1.00D-06 NBFU=   155
 Initial guess read from the read-write file.
 B after Tr=     0.000000    0.000000    0.000000
         Rot=    1.000000    0.000000    0.000000    0.000000 Ang=   0.00 deg.
 Initial guess orbital symmetries:
       Occupied  (A) (A) (A) (A) (A) (A) (A) (A) (A) (A) (A) (A)
                 (A) (A) (A) (A) (A) (A) (A) (A) (A) (A) (A) (A)
                 (A) (A) (A) (A) (A) (A) (A) (A) (A) (A) (A)
       Virtual   (A) (A) (A) (A) (A) (A) (A) (A) (A) (A) (A) (A)
                 (A) (A) (A) (A) (A) (A) (A) (A) (A) (A) (A) (A)
                 (A) (A) (A) (A) (A) (A) (A) (A) (A) (A) (A) (A)
                 (A) (A) (A) (A) (A) (A) (A) (A) (A) (A) (A) (A)
                 (A) (A) (A) (A) (A) (A) (A) (A) (A) (A) (A) (A)
                 (A) (A) (A) (A) (A) (A) (A) (A) (A) (A) (A) (A)
                 (A) (A) (A) (A) (A) (A) (A) (A) (A) (A) (A) (A)
                 (A) (A) (A) (A) (A) (A) (A) (A) (A) (A) (A) (A)
                 (A) (A) (A) (A) (A) (A) (A) (A) (A) (A) (A) (A)
                 (A) (A) (A) (A) (A) (A) (A) (A) (A) (A) (A) (A)
 Harris functional with IExCor=  402 diagonalized for initial guess.
 ExpMin= 1.61D-01 ExpMax= 5.48D+03 ExpMxC= 8.25D+02 IAcc=3 IRadAn=         5 AccDes= 0.00D+00
 HarFok:  IExCor=  402 AccDes= 0.00D+00 IRadAn=         5 IDoV= 1
 ScaDFX=  1.000000  1.000000  1.000000  1.000000
 FoFCou: FMM=F IPFlag=           0 FMFlag=      100000 FMFlg1=           0
         NFxFlg=           0 DoJE=T BraDBF=F KetDBF=T FulRan=T
         Omega=  0.000000  0.000000  1.000000  0.000000  0.000000 ICntrl=     500 IOpCl=  0
         NMat0=    1 NMatS0=    1 NMatT0=    0 NMatD0=    1 NMtDS0=    0 NMtDT0=    0
         I1Cent=           4 NGrid=           0.
 Petite list used in FoFCou.
 Requested convergence on RMS density matrix=1.00D-08 within 128 cycles.
 Requested convergence on MAX density matrix=1.00D-06.
 Requested convergence on             energy=1.00D-06.
 No special actions if energy rises.
 Integral accuracy reduced to 1.0D-05 until final iterations.
 Initial convergence to 1.0D-05 achieved.  Increase integral accuracy.
 SCF Done:  E(RB3LYP) =  -456.535545650     A.U. after   11 cycles
             Convg  =    0.4426D-08             -V/T =  2.0093
 Calling FoFJK, ICntrl=      2127 FMM=F ISym2X=0 I1Cent= 0 IOpClX= 0 NMat=1 NMatS=1 NMatT=0.
 ***** Axes restored to original set *****
 -------------------------------------------------------------------
 Center     Atomic                   Forces (Hartrees/Bohr)
 Number     Number              X              Y              Z
 -------------------------------------------------------------------
      1        6           0.001164215    0.000773340   -0.000007180
      2        6          -0.001181701   -0.001441707    0.001245681
      3        6           0.000043057   -0.000089004    0.000008508
      4        6           0.000257397   -0.000192881    0.000133944
      5        6           0.000585590    0.000448382   -0.000498807
      6        7           0.000432543    0.000407713   -0.000411002
      7        7          -0.000906302    0.000305856    0.000279028
      8        8          -0.000357147   -0.000548460   -0.000302709
      9        8           0.000532767    0.000823142   -0.001326111
     10        1          -0.000152609   -0.000021371    0.000074992
     11        1          -0.000013425    0.000032501    0.000116337
     12        1          -0.000141421   -0.000261502    0.000176425
     13        1          -0.000259155    0.000191104   -0.000004488
     14        1          -0.000120195    0.000133580    0.000013357
     15        1          -0.000178259    0.000102455   -0.000023149
     16        1          -0.000042645   -0.000182753    0.000134404
     17        1          -0.000025943    0.000066074    0.000268543
     18        1          -0.000133446   -0.000134476    0.000471904
     19        1           0.000496678   -0.000411990   -0.000349677
 -------------------------------------------------------------------
 Cartesian Forces:  Max     0.001441707 RMS     0.000494346

 GradGradGradGradGradGradGradGradGradGradGradGradGradGradGradGradGradGrad
 Berny optimization.
 Using GEDIIS/GDIIS optimizer.
 Internal  Forces:  Max     0.001345577 RMS     0.000305807
 Search for a local minimum.
 Step number   3 out of a maximum of   90
 All quantities printed in internal units (Hartrees-Bohrs-Radians)
 Mixed Optimization -- En-DIIS/RFO-DIIS
 Update second derivatives using D2CorX and points    1    2    3
 DE= -1.77D-04 DEPred=-1.78D-04 R= 9.92D-01
 SS=  1.41D+00  RLast= 6.59D-02 DXNew= 8.1761D-01 1.9762D-01
 Trust test= 9.92D-01 RLast= 6.59D-02 DXMaxT set to 4.86D-01
 ITU=  1  1  0
 Use linear search instead of GDIIS.
     Eigenvalues ---    0.00368   0.00670   0.01006   0.01081   0.01143
     Eigenvalues ---    0.01378   0.01487   0.01489   0.02002   0.02140
     Eigenvalues ---    0.05327   0.06271   0.07006   0.07463   0.07534
     Eigenvalues ---    0.07713   0.09436   0.12920   0.13803   0.15998
     Eigenvalues ---    0.16000   0.16000   0.16000   0.16000   0.16035
     Eigenvalues ---    0.16496   0.21848   0.22002   0.22821   0.24034
     Eigenvalues ---    0.24999   0.25119   0.26360   0.31948   0.33169
     Eigenvalues ---    0.34089   0.34277   0.34401   0.34428   0.34433
     Eigenvalues ---    0.34444   0.34462   0.34725   0.37616   0.40573
     Eigenvalues ---    0.44601   0.44992   0.49106   0.51153   0.90129
     Eigenvalues ---    0.91392
 RFO step:  Lambda=-9.79571825D-05 EMin= 3.68274937D-03
 Quartic linear search produced a step of -0.00178.
 Iteration  1 RMS(Cart)=  0.01028660 RMS(Int)=  0.00008781
 Iteration  2 RMS(Cart)=  0.00012757 RMS(Int)=  0.00004332
 Iteration  3 RMS(Cart)=  0.00000001 RMS(Int)=  0.00004332
 Variable       Old X    -DE/DX   Delta X   Delta X   Delta X     New X
                                 (Linear)    (Quad)   (Total)
    R1        2.87739  -0.00046   0.00000  -0.00099  -0.00098   2.87641
    R2        2.57478  -0.00049   0.00000  -0.00166  -0.00166   2.57312
    R3        2.31881  -0.00012   0.00000  -0.00019  -0.00019   2.31862
    R4        2.89492  -0.00046  -0.00002   0.00218   0.00215   2.89708
    R5        2.56522  -0.00012   0.00001  -0.00178  -0.00177   2.56345
    R6        2.31905   0.00135   0.00000   0.00182   0.00182   2.32087
    R7        2.07177   0.00007   0.00000   0.00063   0.00063   2.07240
    R8        2.06336   0.00004   0.00000   0.00025   0.00025   2.06361
    R9        2.06985  -0.00022   0.00000  -0.00072  -0.00072   2.06912
   R10        2.75079  -0.00038   0.00001  -0.00159  -0.00158   2.74921
   R11        2.07055  -0.00011   0.00000  -0.00032  -0.00032   2.07023
   R12        2.06374  -0.00005   0.00000   0.00023   0.00023   2.06397
   R13        2.06788  -0.00009   0.00000  -0.00030  -0.00030   2.06758
   R14        2.72245  -0.00012   0.00001  -0.00212  -0.00211   2.72034
   R15        2.07705   0.00017   0.00000   0.00117   0.00116   2.07822
   R16        2.07633   0.00024   0.00000   0.00134   0.00134   2.07767
   R17        1.90719   0.00045   0.00000   0.00047   0.00047   1.90766
   R18        1.91354   0.00067   0.00000   0.00152   0.00151   1.91506
    A1        2.01153   0.00019   0.00000   0.00036   0.00027   2.01180
    A2        2.14351  -0.00013   0.00001  -0.00218  -0.00226   2.14125
    A3        2.12802  -0.00007  -0.00001   0.00144   0.00133   2.12934
    A4        2.01017   0.00027  -0.00001   0.00313   0.00294   2.01312
    A5        2.13333  -0.00104   0.00001  -0.00572  -0.00589   2.12745
    A6        2.13964   0.00077   0.00000   0.00285   0.00267   2.14231
    A7        1.91245  -0.00010   0.00000  -0.00134  -0.00134   1.91111
    A8        1.89769  -0.00009   0.00000  -0.00114  -0.00114   1.89655
    A9        1.97104  -0.00020   0.00000  -0.00043  -0.00043   1.97060
   A10        1.88318   0.00006   0.00001  -0.00121  -0.00120   1.88198
   A11        1.88776   0.00012   0.00000  -0.00023  -0.00022   1.88754
   A12        1.90981   0.00021  -0.00001   0.00432   0.00430   1.91411
   A13        1.94239  -0.00038   0.00001  -0.00388  -0.00387   1.93852
   A14        1.89953  -0.00013   0.00000   0.00006   0.00005   1.89958
   A15        1.92857  -0.00016   0.00001  -0.00187  -0.00187   1.92671
   A16        1.90315   0.00025  -0.00001   0.00208   0.00207   1.90522
   A17        1.88492   0.00025  -0.00001   0.00181   0.00180   1.88672
   A18        1.90483   0.00018  -0.00001   0.00197   0.00196   1.90679
   A19        1.89402  -0.00062  -0.00002  -0.00076  -0.00078   1.89324
   A20        1.92227   0.00005   0.00000  -0.00045  -0.00045   1.92182
   A21        1.92396   0.00019   0.00000   0.00129   0.00128   1.92525
   A22        1.93565   0.00028   0.00000   0.00215   0.00215   1.93780
   A23        1.93337   0.00026   0.00000   0.00307   0.00307   1.93643
   A24        1.85474  -0.00012   0.00003  -0.00531  -0.00528   1.84946
   A25        2.12005  -0.00003   0.00000  -0.00072  -0.00072   2.11933
   A26        2.08067   0.00024  -0.00001   0.00341   0.00340   2.08407
   A27        2.08227  -0.00021   0.00001  -0.00274  -0.00273   2.07954
   A28        2.12042   0.00012   0.00000  -0.00047  -0.00047   2.11995
   A29        2.14787   0.00020  -0.00003   0.00688   0.00685   2.15472
   A30        2.01483  -0.00033   0.00002  -0.00642  -0.00640   2.00843
    D1        1.61765  -0.00008  -0.00004   0.00652   0.00649   1.62414
    D2       -2.61112  -0.00012  -0.00003   0.00364   0.00363  -2.60749
    D3       -0.48792  -0.00004  -0.00004   0.00804   0.00801  -0.47991
    D4       -1.50718   0.00029  -0.00001   0.03173   0.03170  -1.47548
    D5        0.54724   0.00025   0.00000   0.02885   0.02884   0.57608
    D6        2.67044   0.00033  -0.00002   0.03324   0.03321   2.70365
    D7       -3.10448   0.00012   0.00000   0.01138   0.01140  -3.09309
    D8        0.02363   0.00010   0.00000   0.01050   0.01052   0.03415
    D9        0.02051  -0.00025  -0.00002  -0.01363  -0.01366   0.00685
   D10       -3.13457  -0.00026  -0.00002  -0.01450  -0.01454   3.13408
   D11        3.13262  -0.00018  -0.00001  -0.01707  -0.01704   3.11559
   D12       -1.02865  -0.00021  -0.00002  -0.01518  -0.01516  -1.04381
   D13        1.01248  -0.00022   0.00001  -0.02116  -0.02111   0.99137
   D14       -0.01753   0.00023   0.00002   0.01762   0.01759   0.00006
   D15        2.10438   0.00020   0.00000   0.01951   0.01947   2.12385
   D16       -2.13767   0.00019   0.00003   0.01352   0.01352  -2.12416
   D17        3.12982   0.00015   0.00001   0.01478   0.01484  -3.13852
   D18        0.00946   0.00018   0.00001   0.01751   0.01757   0.02703
   D19       -0.00317  -0.00024  -0.00001  -0.02000  -0.02007  -0.02324
   D20       -3.12353  -0.00022  -0.00002  -0.01727  -0.01734  -3.14087
   D21       -1.13200   0.00000   0.00000  -0.00071  -0.00072  -1.13272
   D22        1.98835  -0.00002   0.00000  -0.00337  -0.00336   1.98498
   D23        3.05343   0.00001   0.00000  -0.00092  -0.00092   3.05251
   D24       -0.10941  -0.00001   0.00001  -0.00357  -0.00357  -0.11298
   D25        0.96210  -0.00004   0.00000  -0.00223  -0.00223   0.95987
   D26       -2.20075  -0.00006   0.00001  -0.00489  -0.00487  -2.20562
   D27        3.14067  -0.00006   0.00000  -0.00141  -0.00140   3.13926
   D28        0.01159  -0.00005   0.00000  -0.00069  -0.00069   0.01090
   D29        1.02698   0.00012   0.00002  -0.00170  -0.00168   1.02530
   D30       -2.10210   0.00013   0.00002  -0.00098  -0.00097  -2.10307
   D31       -1.02816  -0.00007  -0.00001   0.00160   0.00159  -1.02657
   D32        2.12595  -0.00006  -0.00001   0.00231   0.00230   2.12825
         Item               Value     Threshold  Converged?
 Maximum Force            0.001346     0.000450     NO 
 RMS     Force            0.000306     0.000300     NO 
 Maximum Displacement     0.030649     0.001800     NO 
 RMS     Displacement     0.010282     0.001200     NO 
 Predicted change in Energy=-4.922970D-05
 GradGradGradGradGradGradGradGradGradGradGradGradGradGradGradGradGradGrad

                          Input orientation:                          
 ---------------------------------------------------------------------
 Center     Atomic      Atomic             Coordinates (Angstroms)
 Number     Number       Type             X           Y           Z
 ---------------------------------------------------------------------
      1          6           0       -5.042713    3.455234   -1.751354
      2          6           0       -2.599546    0.964486   -0.479826
      3          6           0       -5.167701    4.048149   -3.147672
      4          6           0       -1.124650   -0.637882    0.647934
      5          6           0       -3.817752    1.884033   -0.335947
      6          7           0       -2.260991    0.270454    0.635451
      7          7           0       -4.022227    2.569170   -1.585369
      8          8           0       -5.829722    3.717414   -0.847303
      9          8           0       -1.963217    0.889607   -1.527602
     10          1           0       -5.868527    3.446889   -3.739287
     11          1           0       -5.579873    5.055911   -3.063813
     12          1           0       -4.212998    4.083751   -3.682606
     13          1           0       -1.289032   -1.483603   -0.028748
     14          1           0       -0.984637   -1.013602    1.663882
     15          1           0       -0.217104   -0.117534    0.327480
     16          1           0       -4.704739    1.296025   -0.058565
     17          1           0       -3.660904    2.599753    0.483776
     18          1           0       -2.820523    0.369464    1.469829
     19          1           0       -3.363784    2.331669   -2.318195
 ---------------------------------------------------------------------
                    Distance matrix (angstroms):
                    1          2          3          4          5
     1  C    0.000000
     2  C    3.713445   0.000000
     3  C    1.522129   4.818900   0.000000
     4  C    6.153162   2.452497   7.260287   0.000000
     5  C    2.443886   1.533067   3.796256   3.818491   0.000000
     6  N    4.855681   1.356519   6.085389   1.454820   2.443513
     7  N    1.361636   2.412728   2.437269   4.865056   1.439541
     8  O    1.226959   4.260010   2.416476   6.583467   2.769620
     9  O    4.014449   1.228151   4.782231   2.787359   2.418310
    10  H    2.152653   5.241435   1.096668   7.644438   4.269768
    11  H    2.138517   5.683229   1.092017   8.126829   4.539508
    12  H    2.193900   4.752982   1.094933   7.112333   4.024314
    13  H    6.438137   2.813193   7.441240   1.095520   4.222531
    14  H    6.935583   3.334104   8.140664   1.092208   4.519087
    15  H    6.353954   2.738347   7.344250   1.094117   4.172658
    16  H    2.764406   2.172376   4.163064   4.129912   1.099746
    17  H    2.763522   2.174651   4.189953   4.116043   1.099456
    18  H    4.983585   2.050375   6.353210   2.136877   2.559143
    19  H    2.098216   2.415130   2.624586   4.757087   2.082252
                    6          7          8          9         10
     6  N    0.000000
     7  N    3.649395   0.000000
     8  O    5.178410   2.265004   0.000000
     9  O    2.269541   2.657779   4.838301   0.000000
    10  H    6.499414   2.969609   2.904869   5.165529   0.000000
    11  H    6.899285   3.285717   2.601329   5.726974   1.768767
    12  H    6.082531   2.593984   3.284348   4.461851   1.774706
    13  H    2.112482   5.130145   6.952588   2.886731   7.684376
    14  H    2.082199   5.711466   7.222424   3.842576   8.540644
    15  H    2.103059   5.035507   6.898436   2.739448   7.821911
    16  H    2.739591   2.101868   2.784029   3.136748   4.419087
    17  H    2.721837   2.100679   2.779336   3.138850   4.839990
    18  H    1.009488   3.951839   5.062918   3.160714   6.774641
    19  H    3.766801   1.013404   3.188206   2.160132   3.088196
                   11         12         13         14         15
    11  H    0.000000
    12  H    1.787833   0.000000
    13  H    8.389766   7.272942   0.000000
    14  H    8.961377   8.061653   1.782849   0.000000
    15  H    8.186861   7.049734   1.772589   1.782698   0.000000
    16  H    4.892251   4.598575   4.403894   4.705355   4.720811
    17  H    4.722345   4.457107   4.749974   4.648805   4.389515
    18  H    7.080304   6.502499   2.832853   2.306731   2.884427
    19  H    3.590054   2.377513   4.909427   5.719102   4.785373
                   16         17         18         19
    16  H    0.000000
    17  H    1.755971   0.000000
    18  H    2.597070   2.579288   0.000000
    19  H    2.824296   2.830405   4.300524   0.000000
 Stoichiometry    C5H10N2O2
 Framework group  C1[X(C5H10N2O2)]
 Deg. of freedom    51
 Full point group                 C1      NOp   1
 Largest Abelian subgroup         C1      NOp   1
 Largest concise Abelian subgroup C1      NOp   1
                         Standard orientation:                         
 ---------------------------------------------------------------------
 Center     Atomic      Atomic             Coordinates (Angstroms)
 Number     Number       Type             X           Y           Z
 ---------------------------------------------------------------------
      1          6           0        2.342104   -0.171070   -0.021057
      2          6           0       -1.358738    0.132945    0.010937
      3          6           0        3.394042    0.928480    0.014895
      4          6           0       -3.808271    0.012928   -0.000235
      5          6           0       -0.050774   -0.666758    0.010675
      6          7           0       -2.493622   -0.610112    0.004193
      7          7           0        1.050482    0.259920   -0.017283
      8          8           0        2.629633   -1.363791   -0.008054
      9          8           0       -1.368535    1.360874   -0.010306
     10          1           0        3.680609    1.127059    1.054667
     11          1           0        4.282343    0.579782   -0.515983
     12          1           0        3.044806    1.867056   -0.427811
     13          1           0       -3.982567    0.571352    0.926019
     14          1           0       -4.567475   -0.766237   -0.097353
     15          1           0       -3.897108    0.709718   -0.839094
     16          1           0       -0.001530   -1.311454    0.900272
     17          1           0       -0.017326   -1.343296   -0.855339
     18          1           0       -2.426842   -1.617208    0.023259
     19          1           0        0.788114    1.238763   -0.021414
 ---------------------------------------------------------------------
 Rotational constants (GHZ):      5.0326708      0.6749611      0.6018476
 Standard basis: 6-31G(d) (6D, 7F)
 There are   155 symmetry adapted basis functions of A   symmetry.
 Integral buffers will be    131072 words long.
 Raffenetti 2 integral format.
 Two-electron integral symmetry is turned on.
   155 basis functions,   292 primitive gaussians,   155 cartesian basis functions
    35 alpha electrons       35 beta electrons
       nuclear repulsion energy       448.2717691083 Hartrees.
 NAtoms=   19 NActive=   19 NUniq=   19 SFac= 1.00D+00 NAtFMM=   60 NAOKFM=F Big=F
 One-electron integrals computed using PRISM.
 NBasis=   155 RedAO= T  NBF=   155
 NBsUse=   155 1.00D-06 NBFU=   155
 Initial guess read from the read-write file.
 B after Tr=     0.000000    0.000000    0.000000
         Rot=    1.000000    0.000000    0.000000    0.000000 Ang=   0.00 deg.
 Initial guess orbital symmetries:
       Occupied  (A) (A) (A) (A) (A) (A) (A) (A) (A) (A) (A) (A)
                 (A) (A) (A) (A) (A) (A) (A) (A) (A) (A) (A) (A)
                 (A) (A) (A) (A) (A) (A) (A) (A) (A) (A) (A)
       Virtual   (A) (A) (A) (A) (A) (A) (A) (A) (A) (A) (A) (A)
                 (A) (A) (A) (A) (A) (A) (A) (A) (A) (A) (A) (A)
                 (A) (A) (A) (A) (A) (A) (A) (A) (A) (A) (A) (A)
                 (A) (A) (A) (A) (A) (A) (A) (A) (A) (A) (A) (A)
                 (A) (A) (A) (A) (A) (A) (A) (A) (A) (A) (A) (A)
                 (A) (A) (A) (A) (A) (A) (A) (A) (A) (A) (A) (A)
                 (A) (A) (A) (A) (A) (A) (A) (A) (A) (A) (A) (A)
                 (A) (A) (A) (A) (A) (A) (A) (A) (A) (A) (A) (A)
                 (A) (A) (A) (A) (A) (A) (A) (A) (A) (A) (A) (A)
                 (A) (A) (A) (A) (A) (A) (A) (A) (A) (A) (A) (A)
 Harris functional with IExCor=  402 diagonalized for initial guess.
 ExpMin= 1.61D-01 ExpMax= 5.48D+03 ExpMxC= 8.25D+02 IAcc=3 IRadAn=         5 AccDes= 0.00D+00
 HarFok:  IExCor=  402 AccDes= 0.00D+00 IRadAn=         5 IDoV= 1
 ScaDFX=  1.000000  1.000000  1.000000  1.000000
 FoFCou: FMM=F IPFlag=           0 FMFlag=      100000 FMFlg1=           0
         NFxFlg=           0 DoJE=T BraDBF=F KetDBF=T FulRan=T
         Omega=  0.000000  0.000000  1.000000  0.000000  0.000000 ICntrl=     500 IOpCl=  0
         NMat0=    1 NMatS0=    1 NMatT0=    0 NMatD0=    1 NMtDS0=    0 NMtDT0=    0
         I1Cent=           4 NGrid=           0.
 Petite list used in FoFCou.
 Requested convergence on RMS density matrix=1.00D-08 within 128 cycles.
 Requested convergence on MAX density matrix=1.00D-06.
[...]
 0.00569251,0.01462347,-0.02457326,0.00009999,-0.00017744,0.00006358,0.
 51642403,0.00080624,-0.00049174,0.00031021,0.01671624,-0.02034610,0.00
 951696,-0.00007287,-0.00001426,-0.00010135,0.04436903,0.55388619,0.000
 49714,-0.00004183,-0.00030361,-0.02835179,0.01198856,0.00759745,-0.000
 12516,0.00002185,-0.00000997,-0.01108103,-0.01418733,0.61363269,-0.000
 50444,0.01567151,-0.02753392,-0.14053023,0.03605647,-0.00276793,-0.001
 46289,0.00502105,0.00258287,0.00341061,0.00032105,0.00176247,0.5145714
 7,0.01167068,-0.01917501,0.02108962,0.03942528,-0.11336034,-0.00002015
 ,0.00519983,0.00449773,0.00095447,0.00078988,0.00314856,0.00313220,0.0
 3292836,0.52692731,-0.02031041,0.01637328,-0.00549401,-0.00884717,0.00
 394729,-0.08434200,0.00225787,0.00116659,0.00365808,0.00091706,0.00368
 297,-0.00232525,-0.01698576,0.00393140,0.56349443,0.00400240,-0.001429
 06,-0.00214926,-0.13360987,0.06622604,-0.01396163,-0.00075205,0.000458
 13,-0.00004791,-0.17859564,0.07680601,0.00304007,-0.00671776,0.0230775
 8,-0.02513806,0.56395449,-0.00407480,0.00209828,0.00099160,0.07512323,
 -0.15896359,0.11895043,0.00040904,-0.00039027,0.00005867,0.07301515,-0
 .11940188,0.02413797,0.01277842,-0.01129159,0.01847903,-0.22328409,0.3
 2946552,0.00262508,-0.00212458,0.00073011,-0.03001025,0.12941632,-0.24
 213638,0.00004073,0.00000081,-0.00014029,0.00987035,0.01968321,-0.1054
 7706,-0.00655769,0.00634965,0.00355750,-0.19026354,-0.22272432,0.68603
 030,-0.23052809,0.12983169,-0.02099335,-0.00686671,0.01842201,-0.02729
 968,0.00164687,0.00919093,-0.00540672,0.00181732,0.00011575,-0.0013483
 0,-0.09991385,0.01749510,0.01269545,-0.00827196,0.00679819,-0.00130699
 ,0.65541553,0.12569811,-0.16523446,0.06085525,0.00908022,-0.01756868,0
 .01772544,0.01986701,-0.00885239,0.01266892,-0.00104337,0.00099625,0.0
 0096403,0.02251088,-0.11435624,0.06737813,0.00558433,-0.00281908,0.000
 37528,-0.27678626,0.33753070,-0.01354831,0.05599483,-0.13453089,-0.010
 44092,0.00672073,-0.00165171,-0.02467478,0.02524865,-0.00535551,0.0007
 4295,-0.00040117,0.00069808,0.00364814,0.07327792,-0.19885261,0.000883
 45,-0.00105460,0.00189578,-0.20058337,-0.17295715,0.60929344,-0.388518
 57,0.03973418,0.29146560,0.00128653,-0.00273332,0.00410584,0.00246257,
 -0.00227812,0.01969506,0.00080943,-0.00046292,-0.00015389,0.00050004,-
 0.00848814,0.00824319,-0.00129225,0.00194778,-0.00174648,-0.07286865,0
 .03723536,0.04428528,0.45651504,0.04306436,-0.09691777,-0.02051600,-0.
 00098800,0.00246069,-0.00221992,-0.01126308,0.01495477,0.01459519,-0.0
 0046779,0.00025722,0.00003171,-0.00201792,-0.00111700,-0.00553998,0.00
 062229,-0.00068205,0.00087517,0.04186295,0.00795127,-0.02436261,-0.076
 48356,0.07030925,0.28545552,-0.01659340,-0.38644170,0.00095769,-0.0001
 6449,-0.00024470,0.03591087,0.00401325,-0.03384372,-0.00014515,0.00002
 595,0.00009345,-0.00343085,0.00207987,-0.00521635,0.00064521,-0.000685
 88,0.00068693,0.03593415,-0.01891239,0.01357244,-0.35728812,0.02815460
 ,0.40599911,0.00169393,-0.00235032,0.00253968,-0.31540348,0.00373908,0
 .27515003,-0.00034841,0.00035004,-0.00010235,-0.00621726,0.00168021,0.
 00109510,-0.02423553,0.00944291,0.03698821,0.02049018,-0.01415545,0.02
 279693,-0.00288762,0.00162001,0.00361813,-0.00206952,0.00190820,-0.001
 41264,0.32969093,-0.00256015,0.00335934,-0.00259572,-0.00033489,-0.092
 45379,0.03008731,0.00002320,-0.00002903,0.00020800,-0.00224802,-0.0004
 8487,-0.00136346,0.01635122,0.01522807,-0.00767149,-0.01903718,0.00929
 365,0.03840979,0.00767753,-0.00245258,0.00019681,0.00267497,-0.0018068
 8,-0.00051406,-0.00633053,0.07302679,0.00291808,-0.00284334,0.00194246
 ,0.28250041,0.02528975,-0.45425326,0.00048761,-0.00017700,-0.00015342,
 0.00818532,-0.00598957,-0.00153903,0.02452769,0.00046208,-0.00806846,0
 .03160021,0.03266221,-0.07797829,-0.00731080,0.00732939,-0.00194806,-0
 .00279656,0.00038962,0.00224521,-0.33509366,-0.06042208,0.53897228,-0.
 00182785,0.00181322,0.00008326,0.00003729,-0.00010278,0.00004679,-0.23
 883254,-0.05713379,-0.10955398,0.00002548,-0.00002312,-0.00000867,0.00
 017259,0.00021142,0.00016981,-0.00005429,0.00008653,-0.00005169,0.0006
 5232,0.00028783,-0.00101751,0.00075269,-0.00030368,0.00082338,0.000006
 72,0.00009878,-0.00005073,0.25634839,0.01831272,0.00427813,0.01092477,
 -0.00023343,-0.00003994,0.00017972,-0.05634808,-0.05987344,-0.03284180
 ,-0.00001467,0.00001950,0.00002505,-0.00008498,-0.00123046,-0.00036673
 ,0.00013829,-0.00008535,0.00001995,-0.00060728,-0.00196751,0.00205732,
 -0.00066858,-0.00019754,-0.00220941,0.00007546,-0.00005571,-0.00005591
 ,0.06192038,0.06497606,-0.02691892,-0.00878616,-0.01416142,0.00039471,
 0.00000658,-0.00021802,-0.10972586,-0.03401789,-0.11261338,0.00004594,
 -0.00003951,-0.00003490,-0.00024026,0.00109240,0.00047410,-0.00021669,
 0.00014794,-0.00004097,0.00128944,0.00183279,-0.00279467,0.00294428,0.
 00171068,0.00270996,-0.00014978,0.00006492,0.00006615,0.12100852,0.033
 62104,0.11869037,-0.00185408,0.00387048,-0.00088913,0.00004259,-0.0000
 0562,-0.00000981,-0.04636159,0.01019054,0.00488795,0.00001359,0.000003
 46,-0.00000127,-0.00037599,-0.00038369,-0.00036861,-0.00004595,0.00003
 944,-0.00002817,-0.00014573,0.00025456,-0.00123806,-0.00002973,-0.0002
 4078,0.00121706,-0.00003963,-0.00000961,-0.00005277,0.00185577,-0.0288
 3401,-0.00506423,0.04617058,0.00226742,-0.01710606,-0.00416346,-0.0002
 1605,0.00012306,0.00010079,0.00930161,-0.30833940,-0.05228392,-0.00006
 387,0.00001280,0.00001009,0.00067845,0.00031463,0.00016966,0.00016498,
 -0.00013628,0.00006783,-0.00073782,-0.00034368,0.00264984,0.00027417,0
 .00318422,0.00021331,0.00011915,-0.00004597,0.00003855,0.00039769,-0.0
 0721377,-0.00157464,-0.01173525,0.33307277,-0.00076708,0.03308502,0.00
 724906,0.00025772,-0.00012769,-0.00038662,0.00524467,-0.05123378,-0.05
 662980,0.00005035,0.00000531,-0.00001630,-0.00134194,-0.00038575,-0.00
 052223,-0.00018311,0.00014867,0.00000162,-0.00014032,0.00065350,-0.003
 62328,-0.00117433,-0.00352909,0.00011316,-0.00014406,0.00004192,0.0001
 0283,0.00156021,-0.01625144,-0.00328111,-0.00234924,0.05565164,0.06078
 128,-0.00076293,-0.00038412,-0.00302778,-0.00016485,0.00006736,0.00012
 882,-0.21688217,0.04097807,0.12324081,-0.00002534,0.00001548,0.0000103
 8,0.00038310,-0.00040175,0.00011484,0.00006687,-0.00005494,0.00000167,
 0.00011841,0.00011064,-0.00078788,0.00263807,0.00015947,-0.00016384,0.
 00009121,-0.00006969,-0.00010088,-0.01920872,0.00617840,0.01681424,0.0
 0012961,-0.00002587,-0.00108942,0.23276483,-0.01659092,0.00389138,0.00
 542436,-0.00001044,0.00002520,0.00005304,0.04260012,-0.06072315,-0.029
 68102,0.00002140,-0.00000504,-0.00000313,-0.00023580,0.00019397,-0.000
 31647,-0.00004006,0.00004441,-0.00006162,0.00072111,-0.00054373,-0.000
 55542,0.00005535,-0.00050156,0.00579460,0.00000589,-0.00004016,-0.0001
 1715,-0.00659845,0.00088949,0.00597231,0.02654758,-0.00325144,-0.01849
 651,-0.04697311,0.06009115,0.02621580,-0.01365354,-0.01015197,0.000269
 08,-0.00003855,-0.00019947,0.12031469,-0.02777100,-0.14089487,-0.00000
 030,0.00000385,0.00000062,-0.00018485,-0.00012117,0.00030031,-0.000025
 14,-0.00004410,0.00009327,-0.00188903,0.00016295,0.00154926,0.00002599
 ,0.00567109,-0.00752059,-0.00023717,-0.00002817,0.00022879,-0.01280716
 ,0.00448257,0.01149852,0.00363401,-0.00076529,-0.00369751,-0.13454361,
 0.03071741,0.14942267,0.00034045,-0.00021228,-0.00009025,-0.00243841,0
 .00132593,0.00681739,-0.00003313,0.00005050,0.00000161,-0.07055997,-0.
 07525802,0.00799761,-0.00062703,-0.00060534,-0.00104396,0.00140006,0.0
 3889425,-0.00958581,-0.00059595,0.00019470,-0.00006013,-0.00016642,0.0
 0007634,0.00004982,0.00250040,-0.00010183,-0.00147661,-0.00000510,0.00
 000691,-0.00001248,-0.00000571,0.00001633,-0.00001779,0.00000505,-0.00
 000514,-0.00000052,0.07746782,-0.00052851,0.00033663,0.00004100,0.0002
 8759,0.00023067,-0.00620428,0.00004187,-0.00005046,0.00001345,-0.07116
 437,-0.28703641,0.02248551,0.00022131,0.00008232,0.00039645,0.00854436
 ,-0.01917040,0.00745186,0.00067357,-0.00031671,0.00013942,0.00027718,-
 0.00011637,-0.00007355,-0.00101759,-0.00024563,0.00137704,0.00001225,-
 0.00000982,0.00001859,0.00000259,-0.00001740,0.00001716,-0.00000860,0.
 00000381,-0.00000414,0.06859485,0.31623681,0.00011454,-0.00007479,0.00
 000773,0.00042347,0.00115521,-0.00061196,-0.00001285,0.00001270,-0.000
 00515,0.00591211,0.02194356,-0.05486383,0.00017393,0.00014661,-0.00007
 970,0.00073960,0.00298570,0.00115688,-0.00020776,0.00011170,-0.0000617
 3,-0.00006615,0.00003040,0.00000259,-0.00140377,-0.00000193,-0.0000465
 7,-0.00000448,0.00000485,-0.00000515,-0.00000067,0.00000342,-0.0000051
 2,0.00000471,0.00000049,0.00000022,-0.00446869,-0.02704036,0.05048676,
 0.00054801,-0.00029202,-0.00005893,-0.00435055,-0.00414041,0.00608746,
 -0.00006285,0.00002797,-0.00002400,-0.12348783,-0.04382445,-0.10782708
 ,0.00037340,0.00099620,-0.00000545,-0.02330790,0.00649074,-0.02565285,
 -0.00054105,0.00057027,0.00004516,-0.00025395,0.00013165,0.00008956,0.
 00197185,-0.00086630,-0.00232133,-0.00000909,0.00001305,-0.00002367,-0
 .00000416,0.00001776,-0.00001327,0.00000673,-0.00000621,0.00000247,-0.
 00398845,-0.00460683,-0.00782407,0.14051006,-0.00026745,0.00012683,0.0
 0004057,0.00369090,0.00154896,-0.00194507,0.00004251,-0.00001424,0.000
 01341,-0.04535876,-0.07511620,-0.06413907,-0.00042092,-0.00079640,0.00
 014145,0.01760189,0.00306830,0.02270411,0.00034434,-0.00037460,-0.0000
 5035,0.00011969,-0.00006727,-0.00003241,-0.00089576,0.00001112,0.00087
 188,0.00000524,-0.00001042,0.00001480,0.00000346,-0.00000888,0.0000086
 9,-0.00000540,0.00000311,0.00000096,-0.01655555,-0.00827396,-0.0261120
 6,0.03923713,0.07831033,0.00026217,-0.00018687,0.00000987,0.00022680,-
 0.00130587,-0.00002213,-0.00002015,0.00002107,-0.00001167,-0.11036062,
 -0.06058160,-0.21386262,-0.00015831,-0.00030423,-0.00020109,-0.0012801
 7,0.00452255,0.00362731,-0.00026305,0.00027482,-0.00005881,-0.00013505
 ,0.00008594,0.00004111,-0.00068808,0.00113615,0.00022546,-0.00000190,0
 .00000316,-0.00000871,-0.00000511,0.00001186,-0.00000704,0.00000200,-0
 .00000677,-0.00000076,0.00307783,0.00074274,0.00344866,0.12522878,0.06
 464872,0.22537690,-0.00016157,0.00015195,-0.00005960,-0.00173572,-0.00
 102824,0.00597706,0.00000045,-0.00000712,0.00000826,-0.12343514,-0.017
 79908,0.11564013,0.00004855,0.00001440,0.00004220,-0.02322275,0.000206
 23,0.02614065,0.00029976,-0.00013420,-0.00014766,0.00012580,-0.0000689
 1,-0.00004124,0.00268330,-0.00171901,-0.00203730,0.00000123,-0.0000000
 8,0.00000319,0.00000267,-0.00000576,0.00000104,-0.00000017,0.00000554,
 -0.00000319,-0.00403693,-0.00140198,0.00673246,0.01259789,0.00311419,-
 0.01591802,0.14032536,0.00021949,-0.00016517,0.00007673,0.00265241,0.0
 0166950,-0.00294948,-0.00000788,0.00000946,-0.00001401,-0.02352106,-0.
 05621603,0.03447705,-0.00020526,0.00014467,0.00017274,0.01461404,0.000
 78196,-0.01986806,-0.00030458,0.00007294,0.00017047,-0.00016084,0.0000
 8005,0.00001829,-0.00194309,-0.00115553,0.00133856,-0.00000771,0.00000
 378,-0.00000586,0.00000075,0.00000468,-0.00000384,0.00000539,-0.000001
 07,0.00000569,-0.01619166,-0.00142352,0.02747767,0.00649825,0.00121262
 ,-0.00959782,0.01526152,0.05756088,-0.00018154,0.00015632,-0.00004764,
 -0.00066352,0.00138330,0.00005102,0.00000964,-0.00001491,0.00001212,0.
 12595847,0.02774271,-0.25071086,0.00043877,-0.00008580,-0.00025489,0.0
 0016144,-0.00291018,0.00435862,0.00015971,-0.00003015,-0.00016501,0.00
 012468,-0.00009000,0.00000075,-0.00163255,0.00107488,-0.00169823,0.000
 00282,-0.00000264,0.00000671,0.00000343,-0.00000839,0.00000437,-0.0000
 0294,0.00000552,-0.00000090,-0.00136228,0.00033215,0.00061098,0.012741
 74,0.00412361,-0.01865792,-0.13438390,-0.03244634,0.26618756,0.0011330
 9,0.00112592,-0.00120089,-0.01962308,-0.01914211,0.00367698,-0.0005062
 4,-0.00062600,-0.00016035,0.00031948,0.00110343,-0.00001280,-0.2054199
 3,-0.12453596,0.01770798,0.00147931,0.00195262,0.00018680,0.00911441,0
 .00434806,0.00358988,-0.00018330,-0.00056765,0.00043779,-0.00161130,0.
 00386999,0.00052460,-0.00005708,0.00009565,-0.00014845,0.00005942,-0.0
 0004050,0.00004970,0.00003067,-0.00003642,0.00005585,-0.00029274,0.000
 11207,0.00002135,0.00020085,-0.00013959,0.00000381,0.00016962,-0.00015
 913,0.00011248,0.21731165,-0.00694305,0.00314367,0.00282075,0.01368162
 ,0.01467081,-0.00137136,0.00060374,0.00036676,0.00023098,-0.00053106,-
 0.00002020,-0.00018226,-0.11938858,-0.14024923,0.01401427,0.00019995,-
 0.00061003,0.00038640,-0.00740065,-0.01382919,0.01462195,0.00231143,0.
 00070786,-0.00342219,0.00170426,-0.00298536,-0.00237340,0.00010191,-0.
 00015647,0.00014188,-0.00003496,-0.00000033,-0.00006839,0.00001558,0.0
 0003533,-0.00016635,0.00016604,-0.00013201,-0.00000837,-0.00001099,0.0
 0002030,0.00003729,-0.00001185,0.00006636,-0.00010160,0.13398395,0.155
 68883,0.00512026,-0.00204103,-0.00042123,0.00463835,0.00030883,-0.0011
 5399,-0.00060032,-0.00071942,-0.00065822,0.00013718,-0.00043791,-0.000
 28410,0.01551161,0.01249431,-0.04927707,-0.00110421,0.00108408,-0.0000
 0228,0.02161511,0.02520162,-0.01371670,-0.00217404,0.00019695,0.001287
 67,0.00023513,-0.00094948,-0.00000021,-0.00015374,0.00020950,-0.000146
 62,0.00005457,-0.00005069,0.00012585,0.00001531,0.00000174,0.00011378,
 -0.00000335,0.00004248,0.00001211,-0.00014630,0.00005707,0.00000559,0.
 00000600,-0.00001110,0.00000857,-0.02262928,-0.02351929,0.06213288,0.0
 0364386,-0.00098090,-0.00258010,0.00304167,0.01779005,0.02483134,-0.00
 002113,0.00038039,0.00039319,-0.00041895,-0.00065662,-0.00053551,-0.04
 655481,-0.00206606,-0.00269056,-0.00013164,-0.00082936,-0.00120895,0.0
 0046101,0.00099728,-0.00407752,-0.00073492,-0.00060999,0.00242560,-0.0
 0544978,-0.00036720,-0.00070551,0.00000642,-0.00004103,0.00000110,-0.0
 0003008,0.00009662,-0.00011133,-0.00001108,-0.00005893,0.00009894,0.00
 018198,-0.00009396,-0.00001952,-0.00024806,0.00017610,0.00003288,0.000
 08787,-0.00013352,0.00012600,-0.00054654,-0.01863004,-0.02050876,0.047
 52056,-0.00184365,0.00183527,0.00177157,-0.00331343,-0.00798936,-0.012
 87574,-0.00052854,-0.00096461,-0.00051351,0.00019564,0.00012960,0.0005
 9494,-0.00461955,-0.14968921,-0.12646102,0.00141943,0.00077661,0.00137
 905,0.00147026,0.01494081,0.02166326,0.00071239,-0.00051235,-0.0010170
 8,0.00181066,-0.00029954,0.00082854,-0.00004042,0.00011493,-0.00007864
 ,0.00012417,-0.00018402,0.00018242,0.00000354,0.00008042,-0.00005612,-
 0.00007276,0.00003993,-0.00002637,0.00017837,-0.00011993,-0.00003844,-
 0.00012272,0.00012741,-0.00006856,-0.00102968,-0.01336963,-0.01641057,
 0.00435101,0.15702720,0.00721569,-0.00388638,-0.00162323,0.00272274,-0
 .00075391,-0.00115852,0.00025466,0.00081420,0.00018820,0.00072571,-0.0
 0007027,0.00030426,-0.00517720,-0.12188520,-0.19870114,-0.00081238,0.0
 0126456,0.00022192,-0.00175756,-0.00219476,-0.03383302,-0.00254374,0.0
 0031202,0.00305940,-0.00043680,-0.00058135,0.00115310,-0.00001498,-0.0
 0008898,0.00006365,-0.00016702,0.00015471,-0.00014589,-0.00006710,-0.0
 0008947,0.00011036,-0.00013988,0.00013037,0.00000487,-0.00004378,-0.00
 002314,-0.00004463,-0.00005259,0.00002696,0.00002922,-0.00038780,-0.00
 052684,0.00310771,0.00448064,0.12883053,0.23058332,0.00020803,0.000000
 08,-0.00010669,0.00649802,-0.00660425,-0.00712106,0.00001460,0.0000231
 1,0.00002039,-0.01257272,-0.00415424,0.01934185,0.00002919,0.00122152,
 -0.00084957,-0.21450280,0.02616493,0.20090219,-0.00080323,-0.00048039,
 0.00046077,-0.00015859,-0.00007448,0.00010722,0.00303566,0.00500211,-0
 .00245207,-0.00000533,-0.00000127,0.00000122,0.00000096,-0.00000028,-0
 .00000108,-0.00000176,-0.00000186,0.00001682,0.00081105,0.00018079,-0.
 00015925,-0.00005260,-0.00065102,-0.00004622,-0.00354022,0.00312452,-0
 .00142317,-0.00087130,-0.00011532,-0.00039589,0.00020947,0.00012614,-0
 .00043268,0.22121635,0.00029028,-0.00006245,-0.00001711,-0.02212679,-0
 .00077471,0.01000418,-0.00003032,0.00007956,0.00001355,0.01006400,0.00
 084031,-0.01788390,0.00078816,0.00005950,0.00109102,0.02781451,-0.0332
 6605,0.02046875,-0.00026256,-0.00037588,-0.00108372,-0.00013886,-0.000
 03452,-0.00010191,0.00452923,0.00168370,0.00717618,-0.00000982,0.00000
 943,-0.00001637,-0.00000032,0.00001072,-0.00002001,0.00001101,0.000007
 84,-0.00000963,-0.00025865,-0.00021694,-0.00059624,-0.00032566,0.00043
 485,0.00064515,0.00333276,-0.00257958,0.00079576,-0.00020991,-0.000156
 55,0.00032799,0.00048746,-0.00125428,-0.00054241,-0.02348303,0.0351557
 1,-0.00063046,0.00032477,0.00027402,0.02088180,-0.00826740,-0.01933875
 ,0.00011676,-0.00004931,0.00001884,-0.00630098,-0.00114663,0.00697992,
 -0.00006719,0.00058109,0.00021020,0.19792027,0.02240905,-0.27719214,0.
 00006783,-0.00082759,0.00026466,0.00022349,-0.00017776,-0.00012414,-0.
 00159932,0.00661961,-0.00144101,0.00000847,-0.00001858,0.00003321,0.00
 000717,-0.00002791,0.00002562,-0.00000639,0.00000552,0.00000724,0.0002
 9909,0.00020541,-0.00009791,-0.00029760,-0.00029129,0.00011483,-0.0018
 0119,0.00104223,0.00027783,-0.00114230,-0.00009672,-0.00000112,-0.0001
 6730,0.00019554,0.00001552,-0.20790310,-0.02018525,0.28980661,-0.01564
 982,-0.00463359,0.01551130,0.00415801,0.00315088,-0.00791440,-0.000586
 96,-0.00147251,-0.00039167,-0.00046335,0.00031440,0.00006075,0.0068535
 1,-0.00599222,-0.00289705,-0.00088845,-0.00150791,0.00384802,-0.246102
 78,0.05008496,0.19930238,0.00118572,0.00526058,-0.00157203,-0.00390164
 ,-0.00205339,0.00365430,0.00014110,0.00009256,-0.00000230,0.00061746,-
 0.00050879,0.00016927,0.00082249,0.00060036,-0.00094268,0.00004306,-0.
 00012657,0.00004504,0.00009770,-0.00004100,0.00004241,-0.00020999,0.00
 025835,-0.00018927,-0.00070700,0.00029801,0.00038236,-0.00100586,0.001
 17913,-0.00336593,0.00048523,-0.00047149,0.00039094,0.25511157,0.00683
 332,-0.00312496,-0.01968514,-0.00314395,-0.00075775,0.00915443,-0.0008
 4043,-0.00198800,-0.00115192,0.00040660,-0.00015770,-0.00006799,-0.016
 35388,0.00066873,0.00941141,0.00051856,0.00128784,-0.00280960,0.051495
 71,-0.03245725,-0.00227618,0.00607183,0.00204799,0.00342691,-0.0002923
 8,-0.00054762,-0.00578533,-0.00071546,0.00054910,-0.00010485,0.0002072
 0,-0.00007567,0.00032216,0.00037853,-0.00019996,0.00161353,-0.00006464
 ,0.00007944,-0.00001218,-0.00008850,0.00004548,-0.00010785,0.00021238,
 -0.00019343,0.00014431,-0.00010476,-0.00319094,0.00421491,0.00018870,-
 0.00068927,-0.00089064,-0.00027706,0.00043933,-0.00029481,-0.04443177,
 0.03826464,-0.00516854,-0.00618578,0.00767075,0.00344282,0.00174210,-0
 .00493264,-0.00153080,-0.00040868,-0.00063645,-0.00010560,0.00004060,0
 .00012106,0.01580043,-0.00278934,-0.01835982,0.00019185,-0.00042339,0.
 00060720,0.19674524,-0.00061177,-0.23068165,-0.00303506,0.00438198,0.0
 0357944,0.00047697,-0.00371164,0.00219024,-0.00003841,0.00030756,-0.00
 023769,0.00036990,-0.00019741,-0.00008887,-0.00054296,0.00135257,-0.00
 085897,0.00001842,-0.00007130,0.00004633,0.00004315,-0.00003190,0.0000
 2564,-0.00010629,0.00009014,-0.00001231,-0.00068536,-0.00041675,-0.001
 13262,0.00021538,0.00210020,-0.00333509,0.00004032,-0.00006604,0.00016
 658,-0.20613144,0.00489883,0.24586888\\-0.00000250,0.00000421,0.000006
 08,0.00000579,0.00000214,-0.00001124,0.00000513,-0.00000434,-0.0000005
 6,0.00000162,-0.00000122,0.00000077,-0.00000269,0.00000135,0.00000251,
 -0.00000424,0.00000055,0.00000559,0.00000607,-0.00000469,-0.00000403,-
 0.00000015,-0.00000034,-0.00000274,-0.00000427,-0.00000001,0.00000570,
 -0.00000139,0.00000141,0.00000012,-0.00000212,0.00000040,0.00000006,-0
 .00000120,0.00000104,-0.00000122,0.00000060,-0.00000060,-0.00000034,0.
 00000037,-0.00000030,0.00000056,-0.00000074,-0.00000002,-0.00000050,0.
 00000068,0.00000045,-0.00000029,0.00000011,-0.00000113,0.,0.00000166,-
 0.00000029,-0.00000148,-0.00000274,0.00000139,0.00000102\\\@


  THE LARGE PRINT GIVETH,
  AND THE SMALL PRINT TAKETH AWAY.

                     -- TOM WAITS
 Job cpu time:  0 days  0 hours 29 minutes 57.6 seconds.
 File lengths (MBytes):  RWF=     66 Int=      0 D2E=      0 Chk=      3 Scr=      1
 Normal termination of Gaussian 09 at Fri Feb 16 21:45:27 2018.
