 Entering Gaussian System, Link 0=g09
 Initial command:
 /home/fb_chem/chemsoft/lx24-amd64/Gaussian_09_C.01_NBO_3.1_64_istanbul-64/g09/l1.exe /local/2397347.1.parallel_long/Gau-15318.inp -scrdir=/local/2397347.1.parallel_long/
 Entering Link 1 = /home/fb_chem/chemsoft/lx24-amd64/Gaussian_09_C.01_NBO_3.1_64_istanbul-64/g09/l1.exe PID=     15319.
  
 Copyright (c) 1988,1990,1992,1993,1995,1998,2003,2009,2011,
            Gaussian, Inc.  All Rights Reserved.
  
 This is part of the Gaussian(R) 09 program.  It is based on
 the Gaussian(R) 03 system (copyright 2003, Gaussian, Inc.),
 the Gaussian(R) 98 system (copyright 1998, Gaussian, Inc.),
 the Gaussian(R) 94 system (copyright 1995, Gaussian, Inc.),
 the Gaussian 92(TM) system (copyright 1992, Gaussian, Inc.),
 the Gaussian 90(TM) system (copyright 1990, Gaussian, Inc.),
 the Gaussian 88(TM) system (copyright 1988, Gaussian, Inc.),
 the Gaussian 86(TM) system (copyright 1986, Carnegie Mellon
 University), and the Gaussian 82(TM) system (copyright 1983,
 Carnegie Mellon University). Gaussian is a federally registered
 trademark of Gaussian, Inc.
  
 This software contains proprietary and confidential information,
 including trade secrets, belonging to Gaussian, Inc.
  
 This software is provided under written license and may be
 used, copied, transmitted, or stored only in accord with that
 written license.
  
 The following legend is applicable only to US Government
 contracts under FAR:
  
                    RESTRICTED RIGHTS LEGEND
  
 Use, reproduction and disclosure by the US Government is
 subject to restrictions as set forth in subparagraphs (a)
 and (c) of the Commercial Computer Software - Restricted
 Rights clause in FAR 52.227-19.
  
 Gaussian, Inc.
 340 Quinnipiac St., Bldg. 40, Wallingford CT 06492
  
  
 ---------------------------------------------------------------
 Warning -- This program may not be used in any manner that
 competes with the business of Gaussian, Inc. or will provide
 assistance to any competitor of Gaussian, Inc.  The licensee
 of this program is prohibited from giving any competitor of
 Gaussian, Inc. access to this program.  By using this program,
 the user acknowledges that Gaussian, Inc. is engaged in the
 business of creating and licensing software in the field of
 computational chemistry and represents and warrants to the
 licensee that it is not a competitor of Gaussian, Inc. and that
 it will not use this program in any manner prohibited above.
 ---------------------------------------------------------------
  

 Cite this work as:
 Gaussian 09, Revision C.01,
 M. J. Frisch, G. W. Trucks, H. B. Schlegel, G. E. Scuseria, 
 M. A. Robb, J. R. Cheeseman, G. Scalmani, V. Barone, B. Mennucci, 
 G. A. Petersson, H. Nakatsuji, M. Caricato, X. Li, H. P. Hratchian, 
 A. F. Izmaylov, J. Bloino, G. Zheng, J. L. Sonnenberg, M. Hada, 
 M. Ehara, K. Toyota, R. Fukuda, J. Hasegawa, M. Ishida, T. Nakajima, 
 Y. Honda, O. Kitao, H. Nakai, T. Vreven, J. A. Montgomery, Jr., 
 J. E. Peralta, F. Ogliaro, M. Bearpark, J. J. Heyd, E. Brothers, 
 K. N. Kudin, V. N. Staroverov, T. Keith, R. Kobayashi, J. Normand, 
 K. Raghavachari, A. Rendell, J. C. Burant, S. S. Iyengar, J. Tomasi, 
 M. Cossi, N. Rega, J. M. Millam, M. Klene, J. E. Knox, J. B. Cross, 
 V. Bakken, C. Adamo, J. Jaramillo, R. Gomperts, R. E. Stratmann, 
 O. Yazyev, A. J. Austin, R. Cammi, C. Pomelli, J. W. Ochterski, 
 R. L. Martin, K. Morokuma, V. G. Zakrzewski, G. A. Voth, 
 P. Salvador, J. J. Dannenberg, S. Dapprich, A. D. Daniels, 
 O. Farkas, J. B. Foresman, J. V. Ortiz, J. Cioslowski, 
 and D. J. Fox, Gaussian, Inc., Wallingford CT, 2010.
 
 ******************************************
 Gaussian 09:  AM64L-G09RevC.01 23-Sep-2011
                16-Feb-2018 
 ******************************************
 %nprocs=4
 Will use up to    4 processors via shared memory.
 %chk=frag19-conf1.chk
 ---------------------------------------------------------
 #B3LYP/6-31G* Integral=(Grid=UltraFine) freq Opt pop=none
 ---------------------------------------------------------
 1/14=-1,18=20,19=15,26=3,38=1/1,3;
 2/9=110,12=2,17=6,18=5,40=1/2;
 3/5=1,6=6,7=1,11=2,16=1,25=1,30=1,71=1,74=-5,75=-5/1,2,3;
 4//1;
 5/5=2,38=5/2;
 7//1,2,3,16;
 1/14=-1,18=20,19=15/3(2);
 2/9=110/2;
 99//99;
 2/9=110/2;
 3/5=1,6=6,7=1,11=2,16=1,25=1,30=1,71=1,74=-5,75=-5/1,2,3;
 4/5=5,16=3/1;
 5/5=2,38=5/2;
 7//1,2,3,16;
 1/14=-1,18=20,19=15/3(-5);
 2/9=110/2;
 99/9=1/99;
 -----------------------------
 Optimization for frag19-conf1
 -----------------------------
 Charge =  1 Multiplicity = 1
 Symbolic Z-Matrix:
 C                     0.77439  -0.85241   0.45943 
 C                     3.13906  -1.23581   0.52712 
 C                     0.72686  -1.06266   1.83371 
 C                     3.04227  -1.43868   1.89949 
 C                     1.99562  -0.92767  -0.212 
 C                     2.96296  -2.74946  -2.84051 
 C                     2.55089  -4.02752  -3.51873 
 C                     1.77269  -1.57046   3.97139 
 C                     2.0719   -0.73501  -1.70372 
 N                     1.85135  -1.34042   2.52375 
 N                     1.90841  -1.99812  -2.38737 
 O                     4.13921  -2.40942  -2.73141 
 H                    -0.14665  -0.63458  -0.07588 
 H                     4.10861  -1.32696   0.04248 
 H                    -0.2021   -1.0163    2.39129 
 H                     3.90593  -1.68417   2.50751 
 H                     2.28916  -3.81554  -4.55874 
 H                     3.3802   -4.73962  -3.48998 
 H                     1.69118  -4.47543  -3.01226 
 H                     1.5917   -2.63719   4.12546 
 H                     2.71332  -1.265     4.4372 
 H                     0.95659  -0.97397   4.38767 
 H                     1.27293  -0.06749  -2.04496 
 H                     3.02482  -0.27064  -1.98169 
 H                     0.96343  -2.34994  -2.50956 
 

 GradGradGradGradGradGradGradGradGradGradGradGradGradGradGradGradGradGrad
 Berny optimization.
 Initialization pass.
                           ----------------------------
                           !    Initial Parameters    !
                           ! (Angstroms and Degrees)  !
 --------------------------                            --------------------------
 ! Name  Definition              Value          Derivative Info.                !
 --------------------------------------------------------------------------------
 ! R1    R(1,3)                  1.3911         estimate D2E/DX2                !
 ! R2    R(1,5)                  1.3957         estimate D2E/DX2                !
 ! R3    R(1,13)                 1.0873         estimate D2E/DX2                !
 ! R4    R(2,4)                  1.3907         estimate D2E/DX2                !
 ! R5    R(2,5)                  1.396          estimate D2E/DX2                !
 ! R6    R(2,14)                 1.0878         estimate D2E/DX2                !
 ! R7    R(3,10)                 1.3482         estimate D2E/DX2                !
 ! R8    R(3,15)                 1.0844         estimate D2E/DX2                !
 ! R9    R(4,10)                 1.3482         estimate D2E/DX2                !
 ! R10   R(4,16)                 1.0844         estimate D2E/DX2                !
 ! R11   R(5,9)                  1.506          estimate D2E/DX2                !
 ! R12   R(6,7)                  1.5044         estimate D2E/DX2                !
 ! R13   R(6,11)                 1.3718         estimate D2E/DX2                !
 ! R14   R(6,12)                 1.2293         estimate D2E/DX2                !
 ! R15   R(7,17)                 1.0932         estimate D2E/DX2                !
 ! R16   R(7,18)                 1.0935         estimate D2E/DX2                !
 ! R17   R(7,19)                 1.0937         estimate D2E/DX2                !
 ! R18   R(8,10)                 1.4679         estimate D2E/DX2                !
 ! R19   R(8,20)                 1.0929         estimate D2E/DX2                !
 ! R20   R(8,21)                 1.0932         estimate D2E/DX2                !
 ! R21   R(8,22)                 1.0932         estimate D2E/DX2                !
 ! R22   R(9,11)                 1.4455         estimate D2E/DX2                !
 ! R23   R(9,23)                 1.0956         estimate D2E/DX2                !
 ! R24   R(9,24)                 1.0959         estimate D2E/DX2                !
 ! R25   R(11,25)                1.0157         estimate D2E/DX2                !
 ! A1    A(3,1,5)              119.8027         estimate D2E/DX2                !
 ! A2    A(3,1,13)             119.1895         estimate D2E/DX2                !
 ! A3    A(5,1,13)             121.0074         estimate D2E/DX2                !
 ! A4    A(4,2,5)              119.848          estimate D2E/DX2                !
 ! A5    A(4,2,14)             119.3075         estimate D2E/DX2                !
 ! A6    A(5,2,14)             120.8431         estimate D2E/DX2                !
 ! A7    A(1,3,10)             120.5479         estimate D2E/DX2                !
 ! A8    A(1,3,15)             122.0569         estimate D2E/DX2                !
 ! A9    A(10,3,15)            117.3946         estimate D2E/DX2                !
 ! A10   A(2,4,10)             120.5167         estimate D2E/DX2                !
 ! A11   A(2,4,16)             122.0683         estimate D2E/DX2                !
 ! A12   A(10,4,16)            117.4143         estimate D2E/DX2                !
 ! A13   A(1,5,2)              118.289          estimate D2E/DX2                !
 ! A14   A(1,5,9)              120.9253         estimate D2E/DX2                !
 ! A15   A(2,5,9)              120.7431         estimate D2E/DX2                !
 ! A16   A(7,6,11)             113.8062         estimate D2E/DX2                !
 ! A17   A(7,6,12)             122.487          estimate D2E/DX2                !
 ! A18   A(11,6,12)            123.6933         estimate D2E/DX2                !
 ! A19   A(6,7,17)             109.2528         estimate D2E/DX2                !
 ! A20   A(6,7,18)             109.4911         estimate D2E/DX2                !
 ! A21   A(6,7,19)             110.7601         estimate D2E/DX2                !
 ! A22   A(17,7,18)            109.4437         estimate D2E/DX2                !
 ! A23   A(17,7,19)            109.3752         estimate D2E/DX2                !
 ! A24   A(18,7,19)            108.4983         estimate D2E/DX2                !
 ! A25   A(10,8,20)            107.5094         estimate D2E/DX2                !
 ! A26   A(10,8,21)            109.2876         estimate D2E/DX2                !
 ! A27   A(10,8,22)            109.27           estimate D2E/DX2                !
 ! A28   A(20,8,21)            110.8032         estimate D2E/DX2                !
 ! A29   A(20,8,22)            110.8102         estimate D2E/DX2                !
 ! A30   A(21,8,22)            109.1244         estimate D2E/DX2                !
 ! A31   A(5,9,11)             110.5442         estimate D2E/DX2                !
 ! A32   A(5,9,23)             110.4573         estimate D2E/DX2                !
 ! A33   A(5,9,24)             110.4556         estimate D2E/DX2                !
 ! A34   A(11,9,23)            107.6134         estimate D2E/DX2                !
 ! A35   A(11,9,24)            110.4049         estimate D2E/DX2                !
 ! A36   A(23,9,24)            107.2738         estimate D2E/DX2                !
 ! A37   A(3,10,4)             120.9824         estimate D2E/DX2                !
 ! A38   A(3,10,8)             119.4936         estimate D2E/DX2                !
 ! A39   A(4,10,8)             119.5081         estimate D2E/DX2                !
 ! A40   A(6,11,9)             123.2198         estimate D2E/DX2                !
 ! A41   A(6,11,25)            119.0607         estimate D2E/DX2                !
 ! A42   A(9,11,25)            117.696          estimate D2E/DX2                !
 ! D1    D(5,1,3,10)            -0.0761         estimate D2E/DX2                !
 ! D2    D(5,1,3,15)          -179.7874         estimate D2E/DX2                !
 ! D3    D(13,1,3,10)          179.7077         estimate D2E/DX2                !
 ! D4    D(13,1,3,15)           -0.0036         estimate D2E/DX2                !
 ! D5    D(3,1,5,2)              0.9741         estimate D2E/DX2                !
 ! D6    D(3,1,5,9)            178.618          estimate D2E/DX2                !
 ! D7    D(13,1,5,2)          -178.8057         estimate D2E/DX2                !
 ! D8    D(13,1,5,9)            -1.1618         estimate D2E/DX2                !
 ! D9    D(5,2,4,10)             0.0116         estimate D2E/DX2                !
 ! D10   D(5,2,4,16)           179.708          estimate D2E/DX2                !
 ! D11   D(14,2,4,10)         -179.5649         estimate D2E/DX2                !
 ! D12   D(14,2,4,16)            0.1315         estimate D2E/DX2                !
 ! D13   D(4,2,5,1)             -0.9429         estimate D2E/DX2                !
 ! D14   D(4,2,5,9)           -178.5913         estimate D2E/DX2                !
 ! D15   D(14,2,5,1)           178.627          estimate D2E/DX2                !
 ! D16   D(14,2,5,9)             0.9785         estimate D2E/DX2                !
 ! D17   D(1,3,10,4)            -0.8929         estimate D2E/DX2                !
 ! D18   D(1,3,10,8)          -179.4367         estimate D2E/DX2                !
 ! D19   D(15,3,10,4)          178.8315         estimate D2E/DX2                !
 ! D20   D(15,3,10,8)            0.2877         estimate D2E/DX2                !
 ! D21   D(2,4,10,3)             0.9251         estimate D2E/DX2                !
 ! D22   D(2,4,10,8)           179.4687         estimate D2E/DX2                !
 ! D23   D(16,4,10,3)         -178.7851         estimate D2E/DX2                !
 ! D24   D(16,4,10,8)           -0.2414         estimate D2E/DX2                !
 ! D25   D(1,5,9,11)           -89.667          estimate D2E/DX2                !
 ! D26   D(1,5,9,23)            29.3256         estimate D2E/DX2                !
 ! D27   D(1,5,9,24)           147.8413         estimate D2E/DX2                !
 ! D28   D(2,5,9,11)            87.9191         estimate D2E/DX2                !
 ! D29   D(2,5,9,23)          -153.0883         estimate D2E/DX2                !
 ! D30   D(2,5,9,24)           -34.5726         estimate D2E/DX2                !
 ! D31   D(11,6,7,17)           82.7435         estimate D2E/DX2                !
 ! D32   D(11,6,7,18)         -157.4114         estimate D2E/DX2                !
 ! D33   D(11,6,7,19)          -37.8008         estimate D2E/DX2                !
 ! D34   D(12,6,7,17)          -95.9673         estimate D2E/DX2                !
 ! D35   D(12,6,7,18)           23.8778         estimate D2E/DX2                !
 ! D36   D(12,6,7,19)          143.4884         estimate D2E/DX2                !
 ! D37   D(7,6,11,9)           179.8696         estimate D2E/DX2                !
 ! D38   D(7,6,11,25)            1.6776         estimate D2E/DX2                !
 ! D39   D(12,6,11,9)           -1.4374         estimate D2E/DX2                !
 ! D40   D(12,6,11,25)        -179.6294         estimate D2E/DX2                !
 ! D41   D(20,8,10,3)           89.1021         estimate D2E/DX2                !
 ! D42   D(20,8,10,4)          -89.4635         estimate D2E/DX2                !
 ! D43   D(21,8,10,3)         -150.569          estimate D2E/DX2                !
 ! D44   D(21,8,10,4)           30.8654         estimate D2E/DX2                !
 ! D45   D(22,8,10,3)          -31.2252         estimate D2E/DX2                !
 ! D46   D(22,8,10,4)          150.2093         estimate D2E/DX2                !
 ! D47   D(5,9,11,6)           -97.613          estimate D2E/DX2                !
 ! D48   D(5,9,11,25)           80.6021         estimate D2E/DX2                !
 ! D49   D(23,9,11,6)          141.6842         estimate D2E/DX2                !
 ! D50   D(23,9,11,25)         -40.1007         estimate D2E/DX2                !
 ! D51   D(24,9,11,6)           24.9084         estimate D2E/DX2                !
 ! D52   D(24,9,11,25)        -156.8765         estimate D2E/DX2                !
 --------------------------------------------------------------------------------
 Trust Radius=3.00D-01 FncErr=1.00D-07 GrdErr=1.00D-06
 Number of steps in this run=    129 maximum allowed number of steps=    150.
 GradGradGradGradGradGradGradGradGradGradGradGradGradGradGradGradGradGrad

                          Input orientation:                          
 ---------------------------------------------------------------------
 Center     Atomic      Atomic             Coordinates (Angstroms)
 Number     Number       Type             X           Y           Z
 ---------------------------------------------------------------------
      1          6           0        0.774390   -0.852406    0.459430
      2          6           0        3.139060   -1.235813    0.527121
      3          6           0        0.726858   -1.062658    1.833711
      4          6           0        3.042271   -1.438680    1.899488
      5          6           0        1.995624   -0.927674   -0.211997
      6          6           0        2.962961   -2.749458   -2.840509
      7          6           0        2.550892   -4.027523   -3.518729
      8          6           0        1.772686   -1.570460    3.971395
      9          6           0        2.071899   -0.735006   -1.703720
     10          7           0        1.851346   -1.340416    2.523746
     11          7           0        1.908409   -1.998118   -2.387372
     12          8           0        4.139212   -2.409419   -2.731409
     13          1           0       -0.146649   -0.634584   -0.075883
     14          1           0        4.108610   -1.326965    0.042479
     15          1           0       -0.202098   -1.016301    2.391286
     16          1           0        3.905932   -1.684167    2.507508
     17          1           0        2.289158   -3.815545   -4.558735
     18          1           0        3.380204   -4.739625   -3.489975
     19          1           0        1.691179   -4.475434   -3.012263
     20          1           0        1.591702   -2.637186    4.125461
     21          1           0        2.713322   -1.264996    4.437198
     22          1           0        0.956595   -0.973966    4.387671
     23          1           0        1.272930   -0.067491   -2.044963
     24          1           0        3.024816   -0.270637   -1.981686
     25          1           0        0.963425   -2.349942   -2.509557
 ---------------------------------------------------------------------
                    Distance matrix (angstroms):
                    1          2          3          4          5
     1  C    0.000000
     2  C    2.396507   0.000000
     3  C    1.391083   2.748795   0.000000
     4  C    2.749684   1.390652   2.346669   0.000000
     5  C    1.395669   1.395955   2.410997   2.411423   0.000000
     6  C    4.390700   3.696358   5.449200   4.918536   3.341215
     7  C    5.391018   4.950605   6.384837   6.025001   4.566385
     8  C    3.721033   3.720482   2.433374   2.433518   4.238353
     9  C    2.525179   2.523151   3.798672   3.797352   1.506047
    10  N    2.378947   2.378163   1.348247   1.348205   2.770462
    11  N    3.271535   3.254210   4.482041   4.469427   2.426050
    12  O    4.891602   3.604952   5.856470   4.857038   3.624635
    13  H    1.087345   3.394256   2.143084   3.836387   2.166509
    14  H    3.393534   1.087756   3.835963   2.144304   2.165387
    15  H    2.170820   3.832314   1.084435   3.308504   3.408067
    16  H    3.833145   2.170495   3.308593   1.084372   3.408411
    17  H    6.021354   5.765699   7.133200   6.922811   5.226863
    18  H    6.123605   5.335908   6.992994   6.329040   5.214708
    19  H    5.100930   5.011860   6.005033   5.930651   4.529987
    20  H    4.158511   4.160073   2.911908   2.914708   4.679650
    21  H    4.444358   3.933294   3.281025   2.564828   4.716342
    22  H    3.934342   4.442472   2.565805   3.279795   4.715789
    23  H    2.671445   3.385710   4.041369   4.535352   2.149876
    24  H    3.370744   2.690488   4.523843   4.053164   2.150054
    25  H    3.330651   3.898215   4.536193   4.958999   2.892588
                    6          7          8          9         10
     6  C    0.000000
     7  C    1.504405   0.000000
     8  C    7.014900   7.921156   0.000000
     9  C    2.478770   3.790035   5.744078   0.000000
    10  N    5.656529   6.649918   1.467922   4.276287   0.000000
    11  N    1.371833   2.410651   6.374576   1.445532   4.955291
    12  O    1.229266   2.400186   7.157644   2.851945   5.830416
    13  H    4.667497   5.535517   4.576043   2.753524   3.353842
    14  H    3.412861   4.733044   4.577358   2.747329   3.354416
    15  H    6.355558   7.181552   2.589132   4.692469   2.083082
    16  H    5.534015   6.606283   2.589716   4.690312   2.083207
    17  H    2.131397   1.093185   8.835738   4.205715   7.515283
    18  H    2.134634   1.093469   8.264367   4.575953   7.075088
    19  H    2.150795   1.093727   7.564191   3.980959   6.364070
    20  H    7.100541   7.828583   1.092884   6.150465   2.077142
    21  H    7.431753   8.423462   1.093196   6.197030   2.099997
    22  H    7.708726   8.624219   1.093205   6.197261   2.099781
    23  H    3.268340   4.414411   6.221353   1.095616   4.777866
    24  H    2.624111   4.086723   6.220654   1.095880   4.777067
    25  H    2.065741   2.520467   6.577631   2.118043   5.209769
                   11         12         13         14         15
    11  N    0.000000
    12  O    2.294343   0.000000
    13  H    3.380158   5.345135   0.000000
    14  H    3.345969   2.977768   4.312845   0.000000
    15  H    5.315429   6.857825   2.497140   4.918903   0.000000
    16  H    5.296085   5.294022   4.919242   2.499008   4.163588
    17  H    2.857066   2.956181   6.012290   5.538466   7.895880
    18  H    3.301178   2.565419   6.398913   4.965386   7.828491
    19  H    2.564131   3.215612   5.172240   5.008820   6.689428
    20  H    6.551771   7.318357   4.968256   4.972147   2.975289
    21  H    6.910869   7.398094   5.380033   4.611314   3.570333
    22  H    6.917806   7.929116   4.610383   5.379637   2.308660
    23  H    2.061164   3.764493   2.492805   3.739621   4.770352
    24  H    2.096459   2.525540   3.717893   2.527386   5.485606
    25  H    1.015727   3.184081   3.177655   4.177506   5.211076
                   16         17         18         19         20
    16  H    0.000000
    17  H    7.555695   0.000000
    18  H    6.751446   1.785092   0.000000
    19  H    6.569945   1.784547   1.775052   0.000000
    20  H    2.980214   8.791487   8.100238   7.371306   0.000000
    21  H    2.306886   9.360129   8.680890   8.175950   1.799477
    22  H    3.569032   9.480953   9.061533   8.219423   1.799560
    23  H    5.501939   4.625979   5.325176   4.532170   6.691717
    24  H    4.788245   4.443957   4.730021   4.530011   6.704596
    25  H    5.854276   2.846874   3.537319   2.302185   6.670885
                   21         22         23         24         25
    21  H    0.000000
    22  H    1.781360   0.000000
    23  H    6.747381   6.503886   0.000000
    24  H    6.502910   6.733566   1.764759   0.000000
    25  H    7.245457   7.033143   2.349728   2.975145   0.000000
 Stoichiometry    C9H13N2O(1+)
 Framework group  C1[X(C9H13N2O)]
 Deg. of freedom    69
 Full point group                 C1      NOp   1
 Largest Abelian subgroup         C1      NOp   1
 Largest concise Abelian subgroup C1      NOp   1
                         Standard orientation:                         
 ---------------------------------------------------------------------
 Center     Atomic      Atomic             Coordinates (Angstroms)
 Number     Number       Type             X           Y           Z
 ---------------------------------------------------------------------
      1          6           0        1.123985    1.455964   -0.027504
      2          6           0        0.658901   -0.780870   -0.751048
      3          6           0        2.385752    1.034632    0.379355
      4          6           0        1.929726   -1.155712   -0.328661
      5          6           0        0.243405    0.544558   -0.612150
      6          6           0       -2.890264   -0.311923    0.169053
      7          6           0       -3.781130   -0.281625    1.380941
      8          6           0        4.097927   -0.670835    0.664217
      9          6           0       -1.139659    0.966010   -1.033682
     10          7           0        2.765722   -0.248501    0.215155
     11          7           0       -2.077428    0.786920    0.051712
     12          8           0       -2.916301   -1.231123   -0.646722
     13          1           0        0.838716    2.494822    0.119861
     14          1           0       -0.002100   -1.530429   -1.180528
     15          1           0        3.097353    1.710632    0.840493
     16          1           0        2.287627   -2.175661   -0.415109
     17          1           0       -4.668181    0.318346    1.161334
     18          1           0       -4.084905   -1.300609    1.636020
     19          1           0       -3.255216    0.148527    2.238042
     20          1           0        4.008902   -0.985790    1.706941
     21          1           0        4.445299   -1.496486    0.037551
     22          1           0        4.793095    0.167563    0.569737
     23          1           0       -1.149628    2.026463   -1.308846
     24          1           0       -1.461344    0.398327   -1.914141
     25          1           0       -2.109130    1.503152    0.771231
 ---------------------------------------------------------------------
 Rotational constants (GHZ):      2.2053352      0.4423226      0.4195444
 Standard basis: 6-31G(d) (6D, 7F)
 There are   206 symmetry adapted basis functions of A   symmetry.
 Integral buffers will be    131072 words long.
 Raffenetti 2 integral format.
 Two-electron integral symmetry is turned on.
   206 basis functions,   388 primitive gaussians,   206 cartesian basis functions
    44 alpha electrons       44 beta electrons
       nuclear repulsion energy       680.2620506725 Hartrees.
 NAtoms=   25 NActive=   25 NUniq=   25 SFac= 1.00D+00 NAtFMM=   60 NAOKFM=F Big=F
 One-electron integrals computed using PRISM.
 NBasis=   206 RedAO= T  NBF=   206
 NBsUse=   206 1.00D-06 NBFU=   206
 Harris functional with IExCor=  402 diagonalized for initial guess.
 ExpMin= 1.61D-01 ExpMax= 5.48D+03 ExpMxC= 8.25D+02 IAcc=3 IRadAn=         5 AccDes= 0.00D+00
 HarFok:  IExCor=  402 AccDes= 0.00D+00 IRadAn=         5 IDoV= 1
 ScaDFX=  1.000000  1.000000  1.000000  1.000000
 FoFCou: FMM=F IPFlag=           0 FMFlag=      100000 FMFlg1=           0
         NFxFlg=           0 DoJE=T BraDBF=F KetDBF=T FulRan=T
         Omega=  0.000000  0.000000  1.000000  0.000000  0.000000 ICntrl=     500 IOpCl=  0
         NMat0=    1 NMatS0=    1 NMatT0=    0 NMatD0=    1 NMtDS0=    0 NMtDT0=    0
         I1Cent=           4 NGrid=           0.
 Petite list used in FoFCou.
 Initial guess orbital symmetries:
       Occupied  (A) (A) (A) (A) (A) (A) (A) (A) (A) (A) (A) (A)
                 (A) (A) (A) (A) (A) (A) (A) (A) (A) (A) (A) (A)
                 (A) (A) (A) (A) (A) (A) (A) (A) (A) (A) (A) (A)
                 (A) (A) (A) (A) (A) (A) (A) (A)
       Virtual   (A) (A) (A) (A) (A) (A) (A) (A) (A) (A) (A) (A)
                 (A) (A) (A) (A) (A) (A) (A) (A) (A) (A) (A) (A)
                 (A) (A) (A) (A) (A) (A) (A) (A) (A) (A) (A) (A)
                 (A) (A) (A) (A) (A) (A) (A) (A) (A) (A) (A) (A)
                 (A) (A) (A) (A) (A) (A) (A) (A) (A) (A) (A) (A)
                 (A) (A) (A) (A) (A) (A) (A) (A) (A) (A) (A) (A)
                 (A) (A) (A) (A) (A) (A) (A) (A) (A) (A) (A) (A)
                 (A) (A) (A) (A) (A) (A) (A) (A) (A) (A) (A) (A)
                 (A) (A) (A) (A) (A) (A) (A) (A) (A) (A) (A) (A)
                 (A) (A) (A) (A) (A) (A) (A) (A) (A) (A) (A) (A)
                 (A) (A) (A) (A) (A) (A) (A) (A) (A) (A) (A) (A)
                 (A) (A) (A) (A) (A) (A) (A) (A) (A) (A) (A) (A)
                 (A) (A) (A) (A) (A) (A) (A) (A) (A) (A) (A) (A)
                 (A) (A) (A) (A) (A) (A)
 The electronic state of the initial guess is 1-A.
 Requested convergence on RMS density matrix=1.00D-08 within 128 cycles.
 Requested convergence on MAX density matrix=1.00D-06.
 Requested convergence on             energy=1.00D-06.
 No special actions if energy rises.
 Integral accuracy reduced to 1.0D-05 until final iterations.
 EnCoef did     3 forward-backward iterations
 Initial convergence to 1.0D-05 achieved.  Increase integral accuracy.
 SCF Done:  E(RB3LYP) =  -535.303287000     A.U. after   17 cycles
             Convg  =    0.8311D-08             -V/T =  2.0096
 Calling FoFJK, ICntrl=      2127 FMM=F ISym2X=0 I1Cent= 0 IOpClX= 0 NMat=1 NMatS=1 NMatT=0.
 ***** Axes restored to original set *****
 -------------------------------------------------------------------
 Center     Atomic                   Forces (Hartrees/Bohr)
 Number     Number              X              Y              Z
 -------------------------------------------------------------------
      1        6          -0.003984577   -0.001678169    0.011232321
      2        6           0.006031562   -0.003435389    0.010443344
      3        6          -0.006133512    0.002558998   -0.013888210
      4        6           0.006964345    0.000663399   -0.014515938
      5        6           0.000372768    0.001958193   -0.002338616
      6        6           0.019137557   -0.004451193   -0.003821007
      7        6          -0.000468415   -0.005788603    0.001493047
      8        6          -0.000639742   -0.001826934    0.006962547
      9        6          -0.003849344    0.007684525   -0.008295303
     10        7          -0.000283160    0.003316637    0.000914541
     11        7          -0.003649318    0.001271796    0.002301243
     12        8          -0.013410722    0.004878076    0.006554343
     13        1           0.001009936    0.000742857    0.001872893
     14        1          -0.001735416   -0.000009329    0.000111446
     15        1           0.001613740    0.000310797    0.001360283
     16        1          -0.001370664    0.000861946    0.001130956
     17        1          -0.000760318   -0.002184237   -0.002018833
     18        1          -0.000449883    0.002491922   -0.001809740
     19        1          -0.002500459   -0.001765313   -0.002633489
     20        1           0.000020222    0.000586451    0.004787556
     21        1          -0.001915230   -0.001674470   -0.000349817
     22        1           0.001284893   -0.002198072   -0.000154142
     23        1           0.000438525    0.002078574    0.002689618
     24        1          -0.000268477   -0.005461328   -0.001483564
     25        1           0.004545687    0.001068865   -0.000545478
 -------------------------------------------------------------------
 Cartesian Forces:  Max     0.019137557 RMS     0.004997077

 GradGradGradGradGradGradGradGradGradGradGradGradGradGradGradGradGradGrad
 Berny optimization.
 Internal  Forces:  Max     0.017568005 RMS     0.003965309
 Search for a local minimum.
 Step number   1 out of a maximum of  129
 All quantities printed in internal units (Hartrees-Bohrs-Radians)
 Mixed Optimization -- RFO/linear search
 Second derivative matrix not updated -- first step.
 ITU=  0
     Eigenvalues ---    0.00686   0.00708   0.00793   0.01089   0.01261
     Eigenvalues ---    0.01487   0.01547   0.01755   0.02064   0.02155
     Eigenvalues ---    0.02175   0.02180   0.02231   0.02280   0.02295
     Eigenvalues ---    0.02356   0.05298   0.06650   0.07362   0.07502
     Eigenvalues ---    0.07641   0.07764   0.09775   0.13133   0.15995
     Eigenvalues ---    0.16000   0.16000   0.16000   0.16000   0.16000
     Eigenvalues ---    0.16000   0.16000   0.16000   0.16000   0.16000
     Eigenvalues ---    0.21955   0.21999   0.22001   0.22985   0.23993
     Eigenvalues ---    0.24977   0.24992   0.24994   0.25000   0.31751
     Eigenvalues ---    0.31920   0.34142   0.34172   0.34386   0.34415
     Eigenvalues ---    0.34445   0.34446   0.34447   0.34481   0.35073
     Eigenvalues ---    0.35121   0.35464   0.35471   0.35990   0.38836
     Eigenvalues ---    0.42789   0.43732   0.45027   0.46522   0.47169
     Eigenvalues ---    0.50626   0.53193   0.54740   0.91393
 RFO step:  Lambda=-9.74909184D-03 EMin= 6.85960115D-03
 Linear search not attempted -- first point.
 Iteration  1 RMS(Cart)=  0.14345173 RMS(Int)=  0.00805114
 Iteration  2 RMS(Cart)=  0.01748333 RMS(Int)=  0.00035986
 Iteration  3 RMS(Cart)=  0.00018752 RMS(Int)=  0.00035119
 Iteration  4 RMS(Cart)=  0.00000004 RMS(Int)=  0.00035119
 Variable       Old X    -DE/DX   Delta X   Delta X   Delta X     New X
                                 (Linear)    (Quad)   (Total)
    R1        2.62877  -0.00678   0.00000  -0.01410  -0.01409   2.61468
    R2        2.63743   0.00660   0.00000   0.01381   0.01381   2.65124
    R3        2.05479  -0.00163   0.00000  -0.00451  -0.00451   2.05027
    R4        2.62795  -0.00719   0.00000  -0.01491  -0.01492   2.61303
    R5        2.63797   0.00631   0.00000   0.01322   0.01322   2.65119
    R6        2.05556  -0.00160   0.00000  -0.00443  -0.00443   2.05114
    R7        2.54782   0.00622   0.00000   0.01115   0.01115   2.55897
    R8        2.04928  -0.00067   0.00000  -0.00184  -0.00184   2.04745
    R9        2.54774   0.00735   0.00000   0.01316   0.01316   2.56090
   R10        2.04917  -0.00065   0.00000  -0.00179  -0.00179   2.04738
   R11        2.84602   0.00741   0.00000   0.02265   0.02265   2.86867
   R12        2.84291   0.00954   0.00000   0.02901   0.02901   2.87192
   R13        2.59239   0.00566   0.00000   0.01097   0.01097   2.60336
   R14        2.32298  -0.01090   0.00000  -0.01180  -0.01180   2.31117
   R15        2.06582   0.00168   0.00000   0.00474   0.00474   2.07056
   R16        2.06636  -0.00201   0.00000  -0.00569  -0.00569   2.06067
   R17        2.06684   0.00147   0.00000   0.00415   0.00415   2.07100
   R18        2.77397   0.01196   0.00000   0.03235   0.03235   2.80632
   R19        2.06525   0.00010   0.00000   0.00028   0.00028   2.06553
   R20        2.06584  -0.00226   0.00000  -0.00639  -0.00639   2.05945
   R21        2.06586  -0.00222   0.00000  -0.00626  -0.00626   2.05960
   R22        2.73166   0.00386   0.00000   0.00971   0.00971   2.74137
   R23        2.07041   0.00011   0.00000   0.00031   0.00031   2.07072
   R24        2.07091  -0.00217   0.00000  -0.00618  -0.00618   2.06473
   R25        1.91945  -0.00453   0.00000  -0.00986  -0.00986   1.90959
    A1        2.09095   0.00144   0.00000   0.00552   0.00549   2.09644
    A2        2.08025  -0.00179   0.00000  -0.00905  -0.00911   2.07114
    A3        2.11198   0.00036   0.00000   0.00359   0.00353   2.11551
    A4        2.09174   0.00098   0.00000   0.00356   0.00356   2.09530
    A5        2.08231   0.00016   0.00000   0.00202   0.00202   2.08433
    A6        2.10911  -0.00114   0.00000  -0.00560  -0.00560   2.10351
    A7        2.10396   0.00119   0.00000   0.00502   0.00503   2.10898
    A8        2.13029   0.00133   0.00000   0.00887   0.00884   2.13914
    A9        2.04892  -0.00252   0.00000  -0.01385  -0.01387   2.03505
   A10        2.10341   0.00165   0.00000   0.00708   0.00706   2.11048
   A11        2.13049   0.00090   0.00000   0.00666   0.00666   2.13715
   A12        2.04927  -0.00256   0.00000  -0.01371  -0.01371   2.03555
   A13        2.06453  -0.00238   0.00000  -0.01006  -0.01005   2.05449
   A14        2.11054   0.00611   0.00000   0.02401   0.02401   2.13455
   A15        2.10736  -0.00372   0.00000  -0.01385  -0.01386   2.09350
   A16        1.98629   0.00973   0.00000   0.03757   0.03753   2.02383
   A17        2.13780   0.00784   0.00000   0.03029   0.03026   2.16806
   A18        2.15885  -0.01757   0.00000  -0.06755  -0.06758   2.09127
   A19        1.90682   0.00248   0.00000   0.01079   0.01067   1.91750
   A20        1.91098  -0.00197   0.00000  -0.01180  -0.01185   1.89913
   A21        1.93313   0.00465   0.00000   0.03143   0.03130   1.96443
   A22        1.91015  -0.00199   0.00000  -0.01993  -0.01995   1.89020
   A23        1.90896  -0.00351   0.00000  -0.02012  -0.02032   1.88864
   A24        1.89365   0.00025   0.00000   0.00897   0.00891   1.90256
   A25        1.87639   0.00685   0.00000   0.04134   0.04121   1.91760
   A26        1.90743  -0.00005   0.00000  -0.00090  -0.00097   1.90646
   A27        1.90712   0.00014   0.00000   0.00046   0.00037   1.90749
   A28        1.93388  -0.00317   0.00000  -0.01792  -0.01804   1.91584
   A29        1.93400  -0.00316   0.00000  -0.01742  -0.01757   1.91643
   A30        1.90458  -0.00047   0.00000  -0.00472  -0.00473   1.89985
   A31        1.92936   0.00274   0.00000   0.00977   0.00805   1.93741
   A32        1.92784  -0.00098   0.00000   0.01999   0.01846   1.94630
   A33        1.92781  -0.00056   0.00000  -0.02643  -0.02772   1.90009
   A34        1.87821   0.00472   0.00000   0.06119   0.06056   1.93877
   A35        1.92693  -0.00713   0.00000  -0.07427  -0.07466   1.85227
   A36        1.87228   0.00124   0.00000   0.01177   0.01315   1.88543
   A37        2.11154  -0.00287   0.00000  -0.01097  -0.01097   2.10057
   A38        2.08556   0.00142   0.00000   0.00537   0.00537   2.09092
   A39        2.08581   0.00146   0.00000   0.00553   0.00553   2.09134
   A40        2.15059  -0.01119   0.00000  -0.04865  -0.04866   2.10193
   A41        2.07800   0.00453   0.00000   0.01814   0.01814   2.09614
   A42        2.05418   0.00666   0.00000   0.03071   0.03071   2.08489
    D1       -0.00133  -0.00009   0.00000  -0.00212  -0.00213  -0.00345
    D2       -3.13788  -0.00038   0.00000  -0.01170  -0.01175   3.13355
    D3        3.13649   0.00048   0.00000   0.01643   0.01637  -3.13033
    D4       -0.00006   0.00019   0.00000   0.00684   0.00675   0.00668
    D5        0.01700  -0.00011   0.00000  -0.00339  -0.00339   0.01361
    D6        3.11747  -0.00012   0.00000  -0.00095  -0.00092   3.11656
    D7       -3.12075  -0.00068   0.00000  -0.02225  -0.02234   3.14010
    D8       -0.02028  -0.00069   0.00000  -0.01981  -0.01986  -0.04014
    D9        0.00020   0.00002   0.00000   0.00077   0.00081   0.00101
   D10        3.13650   0.00021   0.00000   0.00640   0.00644  -3.14025
   D11       -3.13400   0.00010   0.00000   0.00414   0.00416  -3.12984
   D12        0.00229   0.00030   0.00000   0.00976   0.00979   0.01209
   D13       -0.01646   0.00015   0.00000   0.00406   0.00405  -0.01241
   D14       -3.11701  -0.00008   0.00000   0.00070   0.00071  -3.11630
   D15        3.11763   0.00007   0.00000   0.00068   0.00070   3.11832
   D16        0.01708  -0.00017   0.00000  -0.00268  -0.00265   0.01443
   D17       -0.01558   0.00027   0.00000   0.00716   0.00716  -0.00842
   D18       -3.13176   0.00033   0.00000   0.01021   0.01022  -3.12154
   D19        3.12120   0.00055   0.00000   0.01637   0.01629   3.13749
   D20        0.00502   0.00061   0.00000   0.01942   0.01935   0.02437
   D21        0.01615  -0.00023   0.00000  -0.00647  -0.00649   0.00966
   D22        3.13232  -0.00029   0.00000  -0.00952  -0.00955   3.12277
   D23       -3.12039  -0.00042   0.00000  -0.01190  -0.01186  -3.13225
   D24       -0.00421  -0.00048   0.00000  -0.01495  -0.01493  -0.01914
   D25       -1.56498  -0.00584   0.00000  -0.12717  -0.12717  -1.69215
   D26        0.51183   0.00114   0.00000  -0.03228  -0.03209   0.47974
   D27        2.58032   0.00171   0.00000  -0.02174  -0.02199   2.55833
   D28        1.53448  -0.00581   0.00000  -0.12456  -0.12452   1.40996
   D29       -2.67190   0.00117   0.00000  -0.02966  -0.02944  -2.70133
   D30       -0.60341   0.00174   0.00000  -0.01912  -0.01934  -0.62274
   D31        1.44415   0.00087   0.00000   0.01695   0.01721   1.46136
   D32       -2.74735  -0.00125   0.00000  -0.00799  -0.00782  -2.75517
   D33       -0.65975   0.00070   0.00000   0.01516   0.01530  -0.64445
   D34       -1.67494   0.00069   0.00000   0.00288   0.00277  -1.67218
   D35        0.41675  -0.00143   0.00000  -0.02205  -0.02226   0.39448
   D36        2.50435   0.00052   0.00000   0.00109   0.00085   2.50520
   D37        3.13932   0.00212   0.00000   0.07190   0.07219  -3.07168
   D38        0.02928   0.00191   0.00000   0.06340   0.06371   0.09299
   D39       -0.02509   0.00268   0.00000   0.08763   0.08732   0.06223
   D40       -3.13512   0.00247   0.00000   0.07913   0.07885  -3.05628
   D41        1.55512  -0.00001   0.00000  -0.00047  -0.00048   1.55464
   D42       -1.56143   0.00011   0.00000   0.00277   0.00281  -1.55863
   D43       -2.62792   0.00019   0.00000   0.00185   0.00187  -2.62605
   D44        0.53870   0.00031   0.00000   0.00509   0.00516   0.54386
   D45       -0.54498  -0.00033   0.00000  -0.00416  -0.00423  -0.54922
   D46        2.62165  -0.00020   0.00000  -0.00091  -0.00095   2.62070
   D47       -1.70367   0.00402   0.00000   0.12887   0.12891  -1.57476
   D48        1.40677   0.00419   0.00000   0.13707   0.13712   1.54390
   D49        2.47286   0.00064   0.00000   0.06047   0.05941   2.53226
   D50       -0.69989   0.00082   0.00000   0.06867   0.06762  -0.63226
   D51        0.43473   0.00030   0.00000   0.05142   0.05242   0.48715
   D52       -2.73801   0.00048   0.00000   0.05962   0.06063  -2.67738
         Item               Value     Threshold  Converged?
 Maximum Force            0.017568     0.000450     NO 
 RMS     Force            0.003965     0.000300     NO 
 Maximum Displacement     0.660815     0.001800     NO 
 RMS     Displacement     0.154344     0.001200     NO 
 Predicted change in Energy=-5.572267D-03
 GradGradGradGradGradGradGradGradGradGradGradGradGradGradGradGradGradGrad

                          Input orientation:                          
 ---------------------------------------------------------------------
 Center     Atomic      Atomic             Coordinates (Angstroms)
 Number     Number       Type             X           Y           Z
 ---------------------------------------------------------------------
      1          6           0        0.724997   -0.749553    0.511241
      2          6           0        3.054172   -1.331933    0.455516
      3          6           0        0.731548   -0.956161    1.879340
      4          6           0        3.010909   -1.527407    1.823703
      5          6           0        1.900812   -0.927340   -0.233203
      6          6           0        2.935149   -2.757472   -2.735910
      7          6           0        2.691904   -4.029054   -3.531876
      8          6           0        1.838543   -1.574899    3.984016
      9          6           0        1.942428   -0.745276   -1.739703
     10          7           0        1.863619   -1.334719    2.518740
     11          7           0        1.815177   -2.019564   -2.421198
     12          8           0        4.039188   -2.368335   -2.381721
     13          1           0       -0.199008   -0.436472    0.036554
     14          1           0        3.983305   -1.503930   -0.078574
     15          1           0       -0.151158   -0.823326    2.493405
     16          1           0        3.877913   -1.838244    2.394224
     17          1           0        2.623621   -3.792625   -4.599576
     18          1           0        3.535913   -4.703463   -3.383805
     19          1           0        1.769554   -4.540962   -3.234770
     20          1           0        1.579854   -2.617650    4.185191
     21          1           0        2.820240   -1.351554    4.401245
     22          1           0        1.102114   -0.916350    4.444285
     23          1           0        1.177869   -0.038042   -2.080295
     24          1           0        2.920398   -0.347207   -2.020610
     25          1           0        0.895669   -2.372930   -2.646524
 ---------------------------------------------------------------------
                    Distance matrix (angstroms):
                    1          2          3          4          5
     1  C    0.000000
     2  C    2.401527   0.000000
     3  C    1.383628   2.750103   0.000000
     4  C    2.748273   1.382757   2.350511   0.000000
     5  C    1.402978   1.402950   2.414715   2.413142   0.000000
     6  C    4.411406   3.497360   5.422280   4.723227   3.268452
     7  C    5.565128   4.827525   6.524334   5.919648   4.596488
     8  C    3.739164   3.739933   2.457221   2.458384   4.267100
     9  C    2.559083   2.529650   3.822065   3.801479   1.518033
    10  N    2.380951   2.382083   1.354150   1.355168   2.782180
    11  N    3.376480   3.206778   4.560669   4.437474   2.446959
    12  O    4.687595   3.177152   5.575963   4.410227   3.356374
    13  H    1.084957   3.400083   2.128820   3.832441   2.173238
    14  H    3.396107   1.085414   3.835024   2.136531   2.166367
    15  H    2.168424   3.832208   1.083462   3.308005   3.414058
    16  H    3.830372   2.166446   3.307988   1.083425   3.412044
    17  H    6.243838   5.638646   7.321326   6.822002   5.272336
    18  H    6.221418   5.132220   7.043255   6.122181   5.182563
    19  H    5.431251   5.056315   6.331065   6.017527   4.699457
    20  H    4.209332   4.211551   2.965993   2.968699   4.741557
    21  H    4.459212   3.952706   3.298328   2.590560   4.743776
    22  H    3.954601   4.460215   2.591880   3.299142   4.745201
    23  H    2.725326   3.409546   4.089115   4.562833   2.173764
    24  H    3.375195   2.668104   4.513480   4.022413   2.137975
    25  H    3.554710   3.919880   4.745273   5.017178   2.987334
                    6          7          8          9         10
     6  C    0.000000
     7  C    1.519754   0.000000
     8  C    6.910747   7.952341   0.000000
     9  C    2.454966   3.815337   5.784464   0.000000
    10  N    5.548310   6.674987   1.485042   4.299766   0.000000
    11  N    1.377639   2.457704   6.420672   1.450668   4.987418
    12  O    1.223021   2.428172   6.781960   2.728170   5.460401
    13  H    4.785033   5.830756   4.585857   2.799321   3.350003
    14  H    3.119525   4.468698   4.594527   2.738629   3.356746
    15  H    6.372751   7.393491   2.597248   4.723177   2.078820
    16  H    5.296420   6.428447   2.599195   4.693616   2.080005
    17  H    2.154493   1.095693   8.900151   4.234292   7.568971
    18  H    2.137187   1.090461   8.182528   4.572693   6.998932
    19  H    2.188221   1.095925   7.804688   4.083178   6.587239
    20  H    7.053936   7.923500   1.093032   6.224276   2.122144
    21  H    7.275217   8.373761   1.089812   6.232926   2.111689
    22  H    7.635768   8.708358   1.089892   6.243164   2.112498
    23  H    3.303508   4.508611   6.290810   1.095779   4.827292
    24  H    2.514210   3.986494   6.223598   1.092609   4.764206
    25  H    2.077340   2.598664   6.744622   2.137121   5.356749
                   11         12         13         14         15
    11  N    0.000000
    12  O    2.251538   0.000000
    13  H    3.550165   5.248091   0.000000
    14  H    3.233348   2.460651   4.317924   0.000000
    15  H    5.426857   6.611574   2.487581   4.916512   0.000000
    16  H    5.241759   4.807979   4.913741   2.497520   4.156117
    17  H    2.922782   2.991874   6.381591   5.246553   8.174748
    18  H    3.330294   2.590421   6.622365   4.621875   7.949312
    19  H    2.649798   3.255648   5.605679   4.907732   7.093796
    20  H    6.637579   7.016752   5.013290   5.019626   3.012996
    21  H    6.928355   6.966226   5.385514   4.630844   3.570446
    22  H    6.990021   7.571593   4.620746   5.394698   2.320620
    23  H    2.109220   3.702468   2.556480   3.745155   4.827185
    24  H    2.044202   2.338173   3.737725   2.497856   5.480646
    25  H    1.010512   3.154656   3.485269   4.108896   5.469551
                   16         17         18         19         20
    16  H    0.000000
    17  H    7.369266   0.000000
    18  H    6.458488   1.772005   0.000000
    19  H    6.590557   1.775425   1.780069   0.000000
    20  H    3.015975   8.924245   8.091137   7.667525   0.000000
    21  H    2.320274   9.328036   8.506144   8.341761   1.785562
    22  H    3.571792   9.611418   9.030205   8.517698   1.785998
    23  H    5.527412   4.746985   5.387548   4.686064   6.787657
    24  H    4.757183   4.313936   4.605880   4.515110   6.742695
    25  H    5.881225   2.969135   3.598036   2.410409   6.870250
                   21         22         23         24         25
    21  H    0.000000
    22  H    1.772911   0.000000
    23  H    6.814180   6.583867   0.000000
    24  H    6.500690   6.739803   1.770749   0.000000
    25  H    7.376871   7.241810   2.419081   2.931698   0.000000
 Stoichiometry    C9H13N2O(1+)
 Framework group  C1[X(C9H13N2O)]
 Deg. of freedom    69
 Full point group                 C1      NOp   1
 Largest Abelian subgroup         C1      NOp   1
 Largest concise Abelian subgroup C1      NOp   1
                         Standard orientation:                         
 ---------------------------------------------------------------------
 Center     Atomic      Atomic             Coordinates (Angstroms)
 Number     Number       Type             X           Y           Z
 ---------------------------------------------------------------------
      1          6           0        1.180557    1.509677    0.101631
      2          6           0        0.558496   -0.653160   -0.736524
      3          6           0        2.424424    0.998416    0.426950
      4          6           0        1.814277   -1.118518   -0.392326
      5          6           0        0.216723    0.686866   -0.500324
      6          6           0       -2.817838   -0.353866    0.125056
      7          6           0       -3.858468   -0.576012    1.210133
      8          6           0        4.063046   -0.827999    0.557562
      9          6           0       -1.173506    1.187138   -0.848770
     10          7           0        2.729947   -0.296657    0.175629
     11          7           0       -2.127034    0.836460    0.186724
     12          8           0       -2.579419   -1.149635   -0.772545
     13          1           0        0.977041    2.555023    0.308916
     14          1           0       -0.159863   -1.335333   -1.180059
     15          1           0        3.200216    1.599649    0.885815
     16          1           0        2.119575   -2.144714   -0.558231
     17          1           0       -4.798416   -0.087487    0.930160
     18          1           0       -4.044026   -1.646324    1.305558
     19          1           0       -3.543136   -0.180335    2.182273
     20          1           0        4.030775   -1.212094    1.580376
     21          1           0        4.340401   -1.628340   -0.128162
     22          1           0        4.802553   -0.030606    0.485738
     23          1           0       -1.176460    2.266415   -1.038202
     24          1           0       -1.512901    0.683496   -1.757037
     25          1           0       -2.267055    1.463855    0.966406
 ---------------------------------------------------------------------
 Rotational constants (GHZ):      2.1953810      0.4587954      0.4255192
 Standard basis: 6-31G(d) (6D, 7F)
 There are   206 symmetry adapted basis functions of A   symmetry.
 Integral buffers will be    131072 words long.
 Raffenetti 2 integral format.
 Two-electron integral symmetry is turned on.
   206 basis functions,   388 primitive gaussians,   206 cartesian basis functions
    44 alpha electrons       44 beta electrons
       nuclear repulsion energy       682.8833975489 Hartrees.
 NAtoms=   25 NActive=   25 NUniq=   25 SFac= 1.00D+00 NAtFMM=   60 NAOKFM=F Big=F
 One-electron integrals computed using PRISM.
 NBasis=   206 RedAO= T  NBF=   206
 NBsUse=   206 1.00D-06 NBFU=   206
 Initial guess read from the read-write file.
 B after Tr=     0.000000    0.000000    0.000000
         Rot=    1.000000    0.000000    0.000000    0.000000 Ang=   0.00 deg.
 Initial guess orbital symmetries:
       Occupied  (A) (A) (A) (A) (A) (A) (A) (A) (A) (A) (A) (A)
                 (A) (A) (A) (A) (A) (A) (A) (A) (A) (A) (A) (A)
                 (A) (A) (A) (A) (A) (A) (A) (A) (A) (A) (A) (A)
                 (A) (A) (A) (A) (A) (A) (A) (A)
       Virtual   (A) (A) (A) (A) (A) (A) (A) (A) (A) (A) (A) (A)
                 (A) (A) (A) (A) (A) (A) (A) (A) (A) (A) (A) (A)
                 (A) (A) (A) (A) (A) (A) (A) (A) (A) (A) (A) (A)
                 (A) (A) (A) (A) (A) (A) (A) (A) (A) (A) (A) (A)
                 (A) (A) (A) (A) (A) (A) (A) (A) (A) (A) (A) (A)
                 (A) (A) (A) (A) (A) (A) (A) (A) (A) (A) (A) (A)
                 (A) (A) (A) (A) (A) (A) (A) (A) (A) (A) (A) (A)
                 (A) (A) (A) (A) (A) (A) (A) (A) (A) (A) (A) (A)
                 (A) (A) (A) (A) (A) (A) (A) (A) (A) (A) (A) (A)
                 (A) (A) (A) (A) (A) (A) (A) (A) (A) (A) (A) (A)
                 (A) (A) (A) (A) (A) (A) (A) (A) (A) (A) (A) (A)
                 (A) (A) (A) (A) (A) (A) (A) (A) (A) (A) (A) (A)
                 (A) (A) (A) (A) (A) (A) (A) (A) (A) (A) (A) (A)
                 (A) (A) (A) (A) (A) (A)
 Harris functional with IExCor=  402 diagonalized for initial guess.
 ExpMin= 1.61D-01 ExpMax= 5.48D+03 ExpMxC= 8.25D+02 IAcc=3 IRadAn=         5 AccDes= 0.00D+00
 HarFok:  IExCor=  402 AccDes= 0.00D+00 IRadAn=         5 IDoV= 1
 ScaDFX=  1.000000  1.000000  1.000000  1.000000
 FoFCou: FMM=F IPFlag=           0 FMFlag=      100000 FMFlg1=           0
         NFxFlg=           0 DoJE=T BraDBF=F KetDBF=T FulRan=T
         Omega=  0.000000  0.000000  1.000000  0.000000  0.000000 ICntrl=     500 IOpCl=  0
         NMat0=    1 NMatS0=    1 NMatT0=    0 NMatD0=    1 NMtDS0=    0 NMtDT0=    0
         I1Cent=           4 NGrid=           0.
 Petite list used in FoFCou.
 Requested convergence on RMS density matrix=1.00D-08 within 128 cycles.
 Requested convergence on MAX density matrix=1.00D-06.
 Requested convergence on             energy=1.00D-06.
 No special actions if energy rises.
 Integral accuracy reduced to 1.0D-05 until final iterations.
 Initial convergence to 1.0D-05 achieved.  Increase integral accuracy.
 SCF Done:  E(RB3LYP) =  -535.308550092     A.U. after   14 cycles
             Convg  =    0.5395D-08             -V/T =  2.0097
 Calling FoFJK, ICntrl=      2127 FMM=F ISym2X=0 I1Cent= 0 IOpClX= 0 NMat=1 NMatS=1 NMatT=0.
 ***** Axes restored to original set *****
 -------------------------------------------------------------------
 Center     Atomic                   Forces (Hartrees/Bohr)
 Number     Number              X              Y              Z
 -------------------------------------------------------------------
      1        6           0.001398162    0.000436788    0.001316616
      2        6           0.002209971   -0.001146051    0.003154996
      3        6          -0.000936782    0.000517964   -0.001806874
      4        6           0.000821755   -0.000068555   -0.002899062
      5        6          -0.001718719    0.000486418   -0.000677377
      6        6          -0.001133655   -0.001574132    0.001446689
      7        6           0.000358062    0.001599121    0.001497498
      8        6           0.000045958    0.000194466    0.000422094
      9        6           0.002797504    0.001926011   -0.001415362
     10        7          -0.000790447   -0.000495855    0.003183551
     11        7          -0.006419114   -0.001608142   -0.001602926
     12        8           0.004932297   -0.001790307   -0.000280609
     13        1          -0.000094706    0.000209981   -0.000002879
     14        1          -0.000775844    0.000030285   -0.000942455
     15        1           0.000217032    0.000039901    0.000498405
     16        1          -0.000109308    0.000322862    0.000608997
     17        1          -0.000036419    0.000269715   -0.000139321
     18        1           0.000763615    0.000350947   -0.000085143
     19        1          -0.000094062    0.001201820   -0.000308081
     20        1          -0.000007643   -0.000045627   -0.000980374
     21        1           0.000544197   -0.000042254   -0.000599674
     22        1          -0.000526259    0.000209486   -0.000565854
     23        1          -0.001285608   -0.003237643    0.001006919
     24        1           0.000089485    0.001703406    0.000417436
     25        1          -0.000249475    0.000509394   -0.001247208
 -------------------------------------------------------------------
 Cartesian Forces:  Max     0.006419114 RMS     0.001513270

 GradGradGradGradGradGradGradGradGradGradGradGradGradGradGradGradGradGrad
 Berny optimization.
 Using GEDIIS/GDIIS optimizer.
 Internal  Forces:  Max     0.005428431 RMS     0.001102630
 Search for a local minimum.
 Step number   2 out of a maximum of  129
 All quantities printed in internal units (Hartrees-Bohrs-Radians)
 Mixed Optimization -- RFO/linear search
 Update second derivatives using D2CorX and points    1    2
 DE= -5.26D-03 DEPred=-5.57D-03 R= 9.45D-01
 SS=  1.41D+00  RLast= 3.78D-01 DXNew= 5.0454D-01 1.1347D+00
 Trust test= 9.45D-01 RLast= 3.78D-01 DXMaxT set to 5.05D-01
 ITU=  1  0
 Use linear search instead of GDIIS.
     Eigenvalues ---    0.00678   0.00708   0.00793   0.01048   0.01226
     Eigenvalues ---    0.01482   0.01540   0.01748   0.02032   0.02155
     Eigenvalues ---    0.02175   0.02182   0.02231   0.02278   0.02294
     Eigenvalues ---    0.02353   0.05633   0.06685   0.07096   0.07494
     Eigenvalues ---    0.07507   0.07623   0.09828   0.13429   0.15724
     Eigenvalues ---    0.15997   0.15998   0.15999   0.16000   0.16000
     Eigenvalues ---    0.16000   0.16000   0.16000   0.16000   0.16431
     Eigenvalues ---    0.21227   0.22000   0.22063   0.22973   0.23934
     Eigenvalues ---    0.24832   0.24990   0.24999   0.27729   0.31596
     Eigenvalues ---    0.32896   0.34135   0.34224   0.34393   0.34424
     Eigenvalues ---    0.34442   0.34445   0.34480   0.34562   0.35066
     Eigenvalues ---    0.35128   0.35465   0.35473   0.36764   0.38760
     Eigenvalues ---    0.42794   0.43624   0.45038   0.46546   0.46789
     Eigenvalues ---    0.50377   0.52858   0.54728   0.92353
 RFO step:  Lambda=-1.57221772D-03 EMin= 6.78337689D-03
 Quartic linear search produced a step of  0.01556.
 Iteration  1 RMS(Cart)=  0.07782800 RMS(Int)=  0.00241590
 Iteration  2 RMS(Cart)=  0.00343570 RMS(Int)=  0.00004085
 Iteration  3 RMS(Cart)=  0.00000923 RMS(Int)=  0.00004068
 Iteration  4 RMS(Cart)=  0.00000000 RMS(Int)=  0.00004068
 Variable       Old X    -DE/DX   Delta X   Delta X   Delta X     New X
                                 (Linear)    (Quad)   (Total)
    R1        2.61468  -0.00088  -0.00022  -0.00296  -0.00318   2.61150
    R2        2.65124  -0.00033   0.00021   0.00020   0.00042   2.65166
    R3        2.05027   0.00014  -0.00007   0.00008   0.00001   2.05028
    R4        2.61303  -0.00132  -0.00023  -0.00381  -0.00404   2.60899
    R5        2.65119   0.00163   0.00021   0.00445   0.00466   2.65585
    R6        2.05114  -0.00021  -0.00007  -0.00090  -0.00097   2.05016
    R7        2.55897   0.00050   0.00017   0.00173   0.00190   2.56088
    R8        2.04745   0.00011  -0.00003   0.00018   0.00015   2.04760
    R9        2.56090   0.00135   0.00020   0.00348   0.00368   2.56458
   R10        2.04738   0.00014  -0.00003   0.00026   0.00024   2.04761
   R11        2.86867   0.00062   0.00035   0.00358   0.00393   2.87260
   R12        2.87192  -0.00353   0.00045  -0.00891  -0.00846   2.86346
   R13        2.60336   0.00338   0.00017   0.00746   0.00763   2.61099
   R14        2.31117   0.00380  -0.00018   0.00330   0.00311   2.31429
   R15        2.07056   0.00020   0.00007   0.00091   0.00098   2.07155
   R16        2.06067   0.00036  -0.00009   0.00064   0.00055   2.06122
   R17        2.07100  -0.00057   0.00006  -0.00134  -0.00128   2.06972
   R18        2.80632  -0.00175   0.00050  -0.00251  -0.00201   2.80431
   R19        2.06553  -0.00014   0.00000  -0.00037  -0.00037   2.06517
   R20        2.05945   0.00025  -0.00010   0.00026   0.00017   2.05961
   R21        2.05960   0.00024  -0.00010   0.00025   0.00015   2.05975
   R22        2.74137   0.00142   0.00015   0.00435   0.00450   2.74586
   R23        2.07072  -0.00151   0.00000  -0.00437  -0.00437   2.06636
   R24        2.06473   0.00059  -0.00010   0.00128   0.00119   2.06592
   R25        1.90959   0.00033  -0.00015   0.00001  -0.00015   1.90945
    A1        2.09644   0.00043   0.00009   0.00192   0.00201   2.09845
    A2        2.07114  -0.00025  -0.00014  -0.00167  -0.00182   2.06932
    A3        2.11551  -0.00018   0.00005  -0.00030  -0.00025   2.11525
    A4        2.09530  -0.00013   0.00006  -0.00023  -0.00018   2.09512
    A5        2.08433   0.00126   0.00003   0.00777   0.00779   2.09212
    A6        2.10351  -0.00113  -0.00009  -0.00759  -0.00768   2.09582
    A7        2.10898  -0.00006   0.00008  -0.00006   0.00001   2.10900
    A8        2.13914   0.00055   0.00014   0.00406   0.00420   2.14334
    A9        2.03505  -0.00049  -0.00022  -0.00401  -0.00423   2.03083
   A10        2.11048   0.00006   0.00011   0.00114   0.00124   2.11172
   A11        2.13715   0.00056   0.00010   0.00381   0.00391   2.14106
   A12        2.03555  -0.00062  -0.00021  -0.00494  -0.00516   2.03039
   A13        2.05449  -0.00014  -0.00016  -0.00135  -0.00153   2.05295
   A14        2.13455   0.00084   0.00037   0.00536   0.00569   2.14024
   A15        2.09350  -0.00069  -0.00022  -0.00346  -0.00372   2.08978
   A16        2.02383  -0.00248   0.00058  -0.00723  -0.00677   2.01706
   A17        2.16806  -0.00295   0.00047  -0.00963  -0.00927   2.15879
   A18        2.09127   0.00543  -0.00105   0.01667   0.01549   2.10676
   A19        1.91750  -0.00030   0.00017  -0.00269  -0.00254   1.91496
   A20        1.89913  -0.00037  -0.00018  -0.00182  -0.00201   1.89712
   A21        1.96443  -0.00073   0.00049  -0.00200  -0.00152   1.96290
   A22        1.89020   0.00019  -0.00031  -0.00090  -0.00122   1.88898
   A23        1.88864   0.00015  -0.00032  -0.00289  -0.00322   1.88542
   A24        1.90256   0.00110   0.00014   0.01045   0.01059   1.91314
   A25        1.91760  -0.00124   0.00064  -0.00563  -0.00501   1.91259
   A26        1.90646  -0.00063  -0.00002  -0.00357  -0.00359   1.90287
   A27        1.90749  -0.00060   0.00001  -0.00321  -0.00321   1.90428
   A28        1.91584   0.00076  -0.00028   0.00247   0.00217   1.91802
   A29        1.91643   0.00077  -0.00027   0.00268   0.00239   1.91882
   A30        1.89985   0.00094  -0.00007   0.00732   0.00725   1.90710
   A31        1.93741   0.00236   0.00013   0.00994   0.01004   1.94745
   A32        1.94630  -0.00035   0.00029  -0.00423  -0.00395   1.94235
   A33        1.90009  -0.00158  -0.00043  -0.00837  -0.00886   1.89123
   A34        1.93877  -0.00217   0.00094  -0.01394  -0.01298   1.92578
   A35        1.85227   0.00083  -0.00116   0.00805   0.00691   1.85918
   A36        1.88543   0.00093   0.00020   0.00921   0.00945   1.89488
   A37        2.10057  -0.00017  -0.00017  -0.00128  -0.00146   2.09911
   A38        2.09092   0.00013   0.00008   0.00079   0.00087   2.09180
   A39        2.09134   0.00004   0.00009   0.00047   0.00056   2.09190
   A40        2.10193  -0.00118  -0.00076  -0.00876  -0.00956   2.09238
   A41        2.09614   0.00057   0.00028   0.00399   0.00423   2.10037
   A42        2.08489   0.00061   0.00048   0.00511   0.00554   2.09043
    D1       -0.00345   0.00002  -0.00003   0.00179   0.00176  -0.00170
    D2        3.13355  -0.00003  -0.00018  -0.00125  -0.00144   3.13211
    D3       -3.13033   0.00010   0.00025   0.00599   0.00626  -3.12407
    D4        0.00668   0.00005   0.00010   0.00295   0.00306   0.00974
    D5        0.01361  -0.00014  -0.00005  -0.00803  -0.00808   0.00553
    D6        3.11656   0.00013  -0.00001   0.00834   0.00837   3.12492
    D7        3.14010  -0.00022  -0.00035  -0.01235  -0.01271   3.12739
    D8       -0.04014   0.00005  -0.00031   0.00401   0.00373  -0.03641
    D9        0.00101  -0.00002   0.00001  -0.00191  -0.00189  -0.00089
   D10       -3.14025   0.00007   0.00010   0.00256   0.00267  -3.13758
   D11       -3.12984   0.00010   0.00006   0.00395   0.00405  -3.12579
   D12        0.01209   0.00020   0.00015   0.00843   0.00862   0.02070
   D13       -0.01241   0.00014   0.00006   0.00810   0.00815  -0.00426
   D14       -3.11630  -0.00015   0.00001  -0.00807  -0.00802  -3.12432
   D15        3.11832   0.00003   0.00001   0.00226   0.00228   3.12061
   D16        0.01443  -0.00027  -0.00004  -0.01390  -0.01388   0.00055
   D17       -0.00842   0.00010   0.00011   0.00469   0.00480  -0.00363
   D18       -3.12154   0.00012   0.00016   0.00544   0.00561  -3.11593
   D19        3.13749   0.00015   0.00025   0.00753   0.00778  -3.13791
   D20        0.02437   0.00017   0.00030   0.00829   0.00859   0.03296
   D21        0.00966  -0.00010  -0.00010  -0.00463  -0.00473   0.00493
   D22        3.12277  -0.00012  -0.00015  -0.00538  -0.00554   3.11723
   D23       -3.13225  -0.00019  -0.00018  -0.00885  -0.00902  -3.14127
   D24       -0.01914  -0.00021  -0.00023  -0.00961  -0.00982  -0.02896
   D25       -1.69215   0.00011  -0.00198  -0.08152  -0.08352  -1.77567
   D26        0.47974  -0.00123  -0.00050  -0.09542  -0.09593   0.38381
   D27        2.55833  -0.00131  -0.00034  -0.09198  -0.09232   2.46602
   D28        1.40996   0.00039  -0.00194  -0.06475  -0.06669   1.34327
   D29       -2.70133  -0.00095  -0.00046  -0.07865  -0.07910  -2.78043
   D30       -0.62274  -0.00102  -0.00030  -0.07521  -0.07548  -0.69823
   D31        1.46136  -0.00023   0.00027  -0.00597  -0.00562   1.45574
   D32       -2.75517  -0.00039  -0.00012  -0.00972  -0.00975  -2.76492
   D33       -0.64445   0.00027   0.00024   0.00091   0.00123  -0.64322
   D34       -1.67218   0.00016   0.00004   0.02280   0.02276  -1.64942
   D35        0.39448   0.00000  -0.00035   0.01905   0.01862   0.41310
   D36        2.50520   0.00067   0.00001   0.02968   0.02960   2.53480
   D37       -3.07168   0.00120   0.00112   0.06554   0.06679  -3.00489
   D38        0.09299   0.00092   0.00099   0.04804   0.04916   0.14216
   D39        0.06223   0.00079   0.00136   0.03799   0.03921   0.10144
   D40       -3.05628   0.00051   0.00123   0.02049   0.02159  -3.03469
   D41        1.55464   0.00001  -0.00001   0.00116   0.00115   1.55579
   D42       -1.55863   0.00003   0.00004   0.00194   0.00199  -1.55664
   D43       -2.62605  -0.00021   0.00003  -0.00151  -0.00148  -2.62753
   D44        0.54386  -0.00019   0.00008  -0.00073  -0.00064   0.54322
   D45       -0.54922   0.00020  -0.00007   0.00336   0.00329  -0.54593
   D46        2.62070   0.00023  -0.00001   0.00415   0.00413   2.62483
   D47       -1.57476   0.00088   0.00201   0.07892   0.08090  -1.49387
   D48        1.54390   0.00116   0.00213   0.09629   0.09841   1.64230
   D49        2.53226   0.00119   0.00092   0.08733   0.08823   2.62050
   D50       -0.63226   0.00147   0.00105   0.10471   0.10574  -0.52652
   D51        0.48715   0.00074   0.00082   0.07895   0.07981   0.56696
   D52       -2.67738   0.00102   0.00094   0.09633   0.09732  -2.58006
         Item               Value     Threshold  Converged?
 Maximum Force            0.005428     0.000450     NO 
 RMS     Force            0.001103     0.000300     NO 
 Maximum Displacement     0.317655     0.001800     NO 
 RMS     Displacement     0.078780     0.001200     NO 
 Predicted change in Energy=-8.861062D-04
 GradGradGradGradGradGradGradGradGradGradGradGradGradGradGradGradGradGrad

                          Input orientation:                          
 ---------------------------------------------------------------------
 Center     Atomic      Atomic             Coordinates (Angstroms)
 Number     Number       Type             X           Y           Z
 ---------------------------------------------------------------------
      1          6           0        0.711168   -0.709752    0.536822
      2          6           0        3.013862   -1.387754    0.432161
      3          6           0        0.741027   -0.903445    1.904800
      4          6           0        2.994767   -1.568401    1.800779
      5          6           0        1.858496   -0.946667   -0.235500
      6          6           0        2.934189   -2.785671   -2.670054
      7          6           0        2.755505   -4.005486   -3.551068
      8          6           0        1.869705   -1.557342    3.987855
      9          6           0        1.880641   -0.771728   -1.745352
     10          7           0        1.871300   -1.325109    2.522161
     11          7           0        1.789827   -2.048690   -2.432716
     12          8           0        4.013794   -2.428089   -2.215742
     13          1           0       -0.208492   -0.355634    0.082987
     14          1           0        3.917635   -1.601814   -0.128532
     15          1           0       -0.117173   -0.725160    2.541800
     16          1           0        3.861184   -1.903126    2.358777
     17          1           0        2.791717   -3.708558   -4.605681
     18          1           0        3.578208   -4.696428   -3.362656
     19          1           0        1.801224   -4.513161   -3.374469
     20          1           0        1.574282   -2.588910    4.194952
     21          1           0        2.870526   -1.372744    4.377934
     22          1           0        1.167844   -0.868245    4.457514
     23          1           0        1.082706   -0.102780   -2.079242
     24          1           0        2.842185   -0.334562   -2.027286
     25          1           0        0.888606   -2.395210   -2.730548
 ---------------------------------------------------------------------
                    Distance matrix (angstroms):
                    1          2          3          4          5
     1  C    0.000000
     2  C    2.402714   0.000000
     3  C    1.381945   2.751182   0.000000
     4  C    2.747669   1.380620   2.352091   0.000000
     5  C    1.403200   1.405418   2.414848   2.413316   0.000000
     6  C    4.419877   3.403565   5.411287   4.633979   3.235135
     7  C    5.634893   4.773404   6.591455   5.885482   4.599346
     8  C    3.737679   3.739093   2.457766   2.459511   4.267292
     9  C    2.565117   2.530857   3.826183   3.801448   1.520114
    10  N    2.380365   2.382744   1.355157   1.357116   2.783537
    11  N    3.431387   3.184748   4.607126   4.427757   2.459050
    12  O    4.629970   3.015551   5.478541   4.232011   3.280438
    13  H    1.084962   3.401582   2.126191   3.831773   2.173291
    14  H    3.394098   1.084899   3.835753   2.138935   2.163496
    15  H    2.169406   3.833143   1.083541   3.308223   3.415513
    16  H    3.829655   2.166890   3.307694   1.083550   3.414066
    17  H    6.306097   5.551156   7.379726   6.757531   5.253325
    18  H    6.270521   5.066206   7.083954   6.065148   5.176603
    19  H    5.563482   5.072385   6.482650   6.072837   4.751450
    20  H    4.202156   4.204017   2.963090   2.965010   4.733566
    21  H    4.456066   3.948404   3.297180   2.587556   4.742311
    22  H    3.950379   4.458827   2.588389   3.299410   4.744210
    23  H    2.711134   3.418723   4.078039   4.567120   2.171032
    24  H    3.355093   2.680964   4.494419   4.024887   2.133733
    25  H    3.680755   3.941371   4.871714   5.064825   3.043719
                    6          7          8          9         10
     6  C    0.000000
     7  C    1.515276   0.000000
     8  C    6.853442   7.975802   0.000000
     9  C    2.453773   3.805678   5.786793   0.000000
    10  N    5.497460   6.697040   1.483980   4.303252   0.000000
    11  N    1.381678   2.451998   6.439840   1.453048   5.008094
    12  O    1.224668   2.419622   6.621173   2.741375   5.315503
    13  H    4.833297   5.942479   4.583776   2.807211   3.348878
    14  H    2.971198   4.340730   4.597895   2.729925   3.360093
    15  H    6.381218   7.492387   2.594472   4.730021   2.077101
    16  H    5.189157   6.369357   2.596045   4.695368   2.078566
    17  H    2.149109   1.096214   8.906554   4.199585   7.571930
    18  H    2.132006   1.090752   8.173302   4.571725   6.993597
    19  H    2.182666   1.095250   7.933812   4.081500   6.703643
    20  H    7.001169   7.962588   1.092838   6.219583   2.117461
    21  H    7.188501   8.355455   1.089900   6.231831   2.108226
    22  H    7.589382   8.746447   1.089973   6.244432   2.109305
    23  H    3.312846   4.493956   6.288465   1.093469   4.825855
    24  H    2.535655   3.975563   6.214728   1.093238   4.756182
    25  H    2.083393   2.598375   6.841164   2.142531   5.449931
                   11         12         13         14         15
    11  N    0.000000
    12  O    2.266506   0.000000
    13  H    3.631595   5.235162   0.000000
    14  H    3.168048   2.246869   4.315395   0.000000
    15  H    5.489462   6.526796   2.488102   4.917202   0.000000
    16  H    5.222080   4.607071   4.912862   2.506129   4.153123
    17  H    2.912168   2.974035   6.498228   5.074537   8.273379
    18  H    3.327703   2.578858   6.712231   4.489031   8.018068
    19  H    2.638303   3.253558   5.768708   4.846777   7.282269
    20  H    6.653140   6.861055   5.007401   5.015793   3.011229
    21  H    6.928907   6.774760   5.381583   4.632186   3.566104
    22  H    7.018232   7.420572   4.614494   5.397341   2.311213
    23  H    2.100364   3.743924   2.531080   3.753558   4.814676
    24  H    2.051845   2.406457   3.709492   2.523448   5.457740
    25  H    1.010435   3.167476   3.644102   4.071239   5.621238
                   16         17         18         19         20
    16  H    0.000000
    17  H    7.273721   0.000000
    18  H    6.373179   1.771882   0.000000
    19  H    6.627656   1.773230   1.786449   0.000000
    20  H    3.011936   8.954714   8.097826   7.813474   0.000000
    21  H    2.310779   9.282649   8.453663   8.432400   1.786838
    22  H    3.567878   9.635655   9.034373   8.661786   1.787405
    23  H    5.536895   4.722843   5.382962   4.652455   6.766683
    24  H    4.768260   4.246706   4.620694   4.512116   6.738391
    25  H    5.914355   2.977052   3.595709   2.394414   6.962056
                   21         22         23         24         25
    21  H    0.000000
    22  H    1.777633   0.000000
    23  H    6.819401   6.581973   0.000000
    24  H    6.488872   6.718695   1.775441   0.000000
    25  H    7.450098   7.353763   2.391048   2.925290   0.000000
 Stoichiometry    C9H13N2O(1+)
 Framework group  C1[X(C9H13N2O)]
 Deg. of freedom    69
 Full point group                 C1      NOp   1
 Largest Abelian subgroup         C1      NOp   1
 Largest concise Abelian subgroup C1      NOp   1
                         Standard orientation:                         
 ---------------------------------------------------------------------
 Center     Atomic      Atomic             Coordinates (Angstroms)
 Number     Number       Type             X           Y           Z
 ---------------------------------------------------------------------
      1          6           0        1.209327    1.530041    0.107970
      2          6           0        0.517741   -0.626981   -0.693282
      3          6           0        2.448180    0.995478    0.406735
      4          6           0        1.769430   -1.115937   -0.376567
      5          6           0        0.209449    0.723660   -0.456799
      6          6           0       -2.778383   -0.376106    0.117203
      7          6           0       -3.905494   -0.615668    1.101221
      8          6           0        4.045267   -0.869050    0.522770
      9          6           0       -1.178081    1.249347   -0.787195
     10          7           0        2.718486   -0.309938    0.163268
     11          7           0       -2.152698    0.851931    0.214568
     12          8           0       -2.446089   -1.180763   -0.744144
     13          1           0        1.038251    2.583557    0.302850
     14          1           0       -0.232022   -1.290920   -1.110469
     15          1           0        3.252545    1.581509    0.835250
     16          1           0        2.053857   -2.147994   -0.544020
     17          1           0       -4.831881   -0.172625    0.717546
     18          1           0       -4.058105   -1.690877    1.203084
     19          1           0       -3.702560   -0.178313    2.084640
     20          1           0        4.019786   -1.241263    1.549953
     21          1           0        4.284785   -1.683334   -0.160936
     22          1           0        4.799082   -0.087348    0.429240
     23          1           0       -1.173551    2.336690   -0.902702
     24          1           0       -1.500850    0.800412   -1.730299
     25          1           0       -2.365752    1.473946    0.981825
 ---------------------------------------------------------------------
 Rotational constants (GHZ):      2.2125209      0.4660647      0.4261429
 Standard basis: 6-31G(d) (6D, 7F)
 There are   206 symmetry adapted basis functions of A   symmetry.
 Integral buffers will be    131072 words long.
 Raffenetti 2 integral format.
 Two-electron integral symmetry is turned on.
   206 basis functions,   388 primitive gaussians,   206 cartesian basis functions
    44 alpha electrons       44 beta electrons
       nuclear repulsion energy       684.2457122242 Hartrees.
 NAtoms=   25 NActive=   25 NUniq=   25 SFac= 1.00D+00 NAtFMM=   60 NAOKFM=F Big=F
 One-electron integrals computed using PRISM.
 NBasis=   206 RedAO= T  NBF=   206
 NBsUse=   206 1.00D-06 NBFU=   206
 Initial guess read from the read-write file.
 B after Tr=     0.000000    0.000000    0.000000
         Rot=    1.000000    0.000000    0.000000    0.000000 Ang=   0.00 deg.
 Initial guess orbital symmetries:
       Occupied  (A) (A) (A) (A) (A) (A) (A) (A) (A) (A) (A) (A)
                 (A) (A) (A) (A) (A) (A) (A) (A) (A) (A) (A) (A)
                 (A) (A) (A) (A) (A) (A) (A) (A) (A) (A) (A) (A)
                 (A) (A) (A) (A) (A) (A) (A) (A)
       Virtual   (A) (A) (A) (A) (A) (A) (A) (A) (A) (A) (A) (A)
                 (A) (A) (A) (A) (A) (A) (A) (A) (A) (A) (A) (A)
                 (A) (A) (A) (A) (A) (A) (A) (A) (A) (A) (A) (A)
                 (A) (A) (A) (A) (A) (A) (A) (A) (A) (A) (A) (A)
                 (A) (A) (A) (A) (A) (A) (A) (A) (A) (A) (A) (A)
                 (A) (A) (A) (A) (A) (A) (A) (A) (A) (A) (A) (A)
                 (A) (A) (A) (A) (A) (A) (A) (A) (A) (A) (A) (A)
                 (A) (A) (A) (A) (A) (A) (A) (A) (A) (A) (A) (A)
                 (A) (A) (A) (A) (A) (A) (A) (A) (A) (A) (A) (A)
                 (A) (A) (A) (A) (A) (A) (A) (A) (A) (A) (A) (A)
                 (A) (A) (A) (A) (A) (A) (A) (A) (A) (A) (A) (A)
                 (A) (A) (A) (A) (A) (A) (A) (A) (A) (A) (A) (A)
                 (A) (A) (A) (A) (A) (A) (A) (A) (A) (A) (A) (A)
                 (A) (A) (A) (A) (A) (A)
 Harris functional with IExCor=  402 diagonalized for initial guess.
 ExpMin= 1.61D-01 ExpMax= 5.48D+03 ExpMxC= 8.25D+02 IAcc=3 IRadAn=         5 AccDes= 0.00D+00
 HarFok:  IExCor=  402 AccDes= 0.00D+00 IRadAn=         5 IDoV= 1
 ScaDFX=  1.000000  1.000000  1.000000  1.000000
 FoFCou: FMM=F IPFlag=           0 FMFlag=      100000 FMFlg1=           0
         NFxFlg=           0 DoJE=T BraDBF=F KetDBF=T FulRan=T
         Omega=  0.000000  0.000000  1.000000  0.000000  0.000000 ICntrl=     500 IOpCl=  0
[...]
 .00000181,-0.00000355,0.00000244,-0.00000322,-0.00000763,0.02797189,0.
 07740268,0.00001808,0.00000209,-0.00003768,-0.00003811,0.00002753,0.00
 004570,0.00001221,-0.00001126,0.00002985,-0.00001639,0.00000300,0.0000
 0272,-0.00000029,0.00006460,0.00021763,0.00621072,0.00618380,-0.020951
 80,0.07189123,0.07802545,-0.26760873,-0.00000151,0.00000291,0.00001136
 ,0.00046022,-0.00053368,0.00017393,-0.00001670,0.00000648,-0.00001204,
 -0.00110448,-0.00150365,0.00007204,-0.00028767,-0.00180623,0.00304289,
 -0.00000471,0.00000423,0.00000277,0.00002111,0.00000778,-0.00007409,-0
 .00000055,0.00000112,-0.00000018,0.00000422,0.00000335,0.00000013,-0.0
 7884552,-0.08210057,0.28860766,-0.00001539,-0.00000075,0.00002994,-0.0
 0001127,-0.00002028,0.00002199,-0.00000512,0.00000320,-0.00002045,0.00
 001061,-0.00000822,0.00000327,0.00001455,0.00009684,-0.00008270,-0.000
 87360,-0.00042786,0.00291265,-0.16531589,0.12529846,-0.05695727,0.0000
 0556,0.00000234,0.00000604,-0.00002004,-0.00005102,0.00018034,0.000011
 36,-0.00000498,0.00000420,0.00081548,0.00065194,-0.00029045,0.00029360
 ,-0.00121297,-0.00059862,0.00000444,-0.00000136,-0.00000635,0.00000867
 ,0.00005330,0.00007681,-0.00000008,0.00000273,0.00000046,0.00000550,0.
 00000495,0.00000381,0.00713020,-0.00815448,0.00292579,0.17386914,-0.00
 000023,0.00002928,-0.00016578,0.00004390,-0.00001579,-0.00015286,0.000
 04743,0.00001006,0.00005716,-0.00002700,0.00000501,0.00008218,0.000099
 87,-0.00028907,0.00012511,0.01888538,-0.01867384,0.00979390,0.12303166
 ,-0.18462881,0.05842458,-0.00000263,0.00000670,0.00003093,0.00065186,0
 .00028850,-0.00066089,0.00000384,-0.00000190,-0.00007441,-0.00141209,-
 0.00258507,-0.00302134,-0.00116357,0.00371741,-0.00052988,-0.00001673,
 -0.00000848,0.00000628,0.00002806,-0.00000686,0.00001494,-0.00000502,-
 0.00000192,-0.00001169,0.00000301,-0.00000885,-0.00001659,0.00619561,-
 0.00691012,0.00286308,-0.13698975,0.19723193,0.00003758,0.00004099,-0.
 00016460,0.00001313,0.00001707,-0.00014052,0.00004356,0.00000964,0.000
 06056,-0.00001240,0.00000684,0.00006566,0.00008205,-0.00031166,0.00019
 582,0.01718863,-0.01951684,0.00664956,-0.05761391,0.06015005,-0.070104
 64,-0.00000653,0.00000054,0.00001421,0.00073536,-0.00020876,-0.0011497
 9,-0.00000668,0.00000331,-0.00006680,-0.00072388,-0.00272537,-0.002717
 39,0.00051238,0.00292694,0.00022215,-0.00001790,-0.00001051,0.00000330
 ,0.00000005,-0.00004977,0.00001296,-0.00000491,-0.00000751,-0.00000982
 ,-0.00000259,-0.00001533,-0.00001763,-0.02050852,0.02125667,-0.0081130
 6,0.06060796,-0.06192692,0.07674612,0.00001565,0.00000103,-0.00004348,
 -0.00005475,0.00002749,-0.00002664,0.00001972,-0.00001009,0.00002139,0
 .00000235,-0.00002370,0.00002177,-0.00000891,-0.00004749,0.00008421,-0
 .00098663,0.00300451,-0.00004311,-0.27680946,-0.09694093,-0.01892029,0
 .00000389,-0.00000009,0.00002130,0.00049371,-0.00036671,-0.00034566,0.
 00000425,0.00000421,-0.00004597,0.00011912,0.00104580,0.00027316,0.002
 26268,-0.00085966,0.00049213,-0.00000207,-0.00000679,-0.00000049,-0.00
 000424,0.00001316,0.00007888,-0.00000264,-0.00000256,-0.00000198,-0.00
 000696,-0.00000660,0.00000218,-0.00758530,-0.00241604,-0.00123088,-0.0
 1652639,-0.00925953,-0.00013432,0.29807526,-0.00001539,-0.00001208,0.0
 0005458,-0.00005782,0.00002852,-0.00009755,-0.00000187,-0.00001048,-0.
 00002687,0.00007656,-0.00005318,0.00000434,-0.00001600,0.00010600,-0.0
 0006761,-0.02575124,-0.00575701,0.00510856,-0.09431997,-0.09435046,-0.
 00939284,0.00001559,-0.00000281,0.00001401,0.00002911,0.00036248,0.000
 16517,0.00001586,-0.00000234,-0.00004220,0.00160571,0.00081160,0.00013
 419,-0.00059890,-0.00400210,-0.00640733,0.00001218,-0.00000631,-0.0000
 1376,-0.00004355,-0.00002706,0.00035332,-0.00000116,0.00000141,0.00000
 207,-0.00000180,-0.00000323,0.00000230,-0.00851651,-0.00437956,-0.0011
 9186,0.02111629,0.01218239,0.00054450,0.10554655,0.09640781,0.00000143
 ,-0.00001372,0.00002796,-0.00003117,0.00004681,-0.00005779,0.00000066,
 -0.00000884,-0.00002001,0.00003195,-0.00002865,0.00000308,-0.00002374,
 0.00001281,-0.00003496,-0.02265484,-0.00366905,-0.00095215,-0.01696334
 ,-0.00914408,-0.04882709,0.00000721,-0.00000433,0.00000029,0.00002383,
 0.00032383,-0.00000468,0.00000928,-0.00000271,-0.00002660,0.00102961,0
 .00109731,-0.00011535,-0.00055162,-0.00599958,-0.00357803,0.00000614,-
 0.00000816,-0.00000333,-0.00003981,-0.00004719,0.00020092,0.00000050,-
 0.00000238,0.00000050,-0.00000666,-0.00000732,-0.00000120,0.02810704,0
 .01145105,0.00499935,-0.00847025,-0.00486496,-0.00151865,0.01923977,0.
 01184620,0.04944557,-0.00071765,-0.00046022,0.00069600,-0.00044764,0.0
 0033383,-0.00085111,-0.00060173,0.00050738,-0.00178383,0.00038079,-0.0
 0006213,0.00154696,0.00078616,-0.00041988,-0.00003293,0.00006994,0.000
 01334,0.00003173,0.00000083,-0.00000292,-0.00000396,-0.05717586,-0.038
 05855,0.00926216,0.00003413,0.00008560,-0.00002154,0.00073575,0.003511
 33,-0.00103972,-0.00003901,0.00001066,0.00002293,-0.00004151,-0.000011
 17,-0.00004813,0.00000472,0.00004940,-0.00004212,-0.00000319,0.0000174
 8,0.00003797,0.00026849,0.00041968,-0.00001296,-0.00030230,-0.00012384
 ,0.00020828,-0.00000082,-0.00000039,0.00000006,-0.00000083,0.00000153,
 0.00000290,-0.00000231,-0.00000181,-0.00000130,0.05328361,0.00012928,-
 0.00006467,-0.00019836,0.00011438,0.00002487,0.00080408,-0.00029502,0.
 00004498,0.00014075,0.00079783,0.00052827,-0.00122873,-0.00042941,0.00
 031314,-0.00025586,-0.00004895,0.00001837,0.00000761,0.00000434,-0.000
 00514,0.00000020,-0.03726513,-0.31132626,0.05851633,-0.00005673,-0.000
 06047,0.00009505,0.00121634,0.00359174,0.00247216,0.00002808,-0.000033
 41,-0.00006059,0.00002340,-0.00000403,-0.00000594,-0.00000708,-0.00001
 653,0.00000755,0.00000487,-0.00000835,0.00001922,-0.00018408,-0.000153
 89,0.00005977,-0.00027179,-0.00022899,0.00011287,-0.00000041,-0.000001
 13,-0.00000004,0.00000105,-0.00000169,-0.00000205,-0.00000107,0.000000
 19,-0.00000075,0.04001586,0.32861135,-0.00069273,-0.00096672,-0.001585
 87,-0.00047919,-0.00074956,-0.00055740,0.00377933,-0.00001068,-0.00059
 906,-0.00201320,0.00181103,0.00122009,-0.00041576,0.00048704,0.0004529
 6,-0.00020151,0.00008115,0.00004380,0.00002232,-0.00001281,0.00000461,
 0.00877033,0.05082860,-0.05969336,0.00019207,0.00011940,0.00005445,0.0
 0241066,0.03597725,-0.02210161,0.00004232,-0.00004536,-0.00013604,0.00
 010755,-0.00003458,-0.00001465,-0.00006900,-0.00017098,-0.00021732,-0.
 00003952,-0.00006627,-0.00003436,-0.00004958,0.00041723,-0.00002025,0.
 00054071,0.00009896,0.00010231,-0.00000194,-0.00000663,-0.00000145,0.0
 0000306,-0.00000928,-0.00000976,-0.00000611,-0.00000160,-0.00000437,-0
 .00841666,-0.06467879,0.07441972,-0.00002934,0.00000927,0.00042777,0.0
 0024701,0.00044158,-0.00071843,-0.00027592,-0.00015337,-0.00032257,0.0
 0052884,0.00053047,0.00209620,0.00055815,-0.00014082,0.00018628,0.0000
 2360,-0.00000574,-0.00000153,-0.00000332,-0.00000195,0.00000642,-0.279
 44301,-0.07975191,-0.07846247,-0.00006844,-0.00018369,-0.00004942,0.00
 287514,0.00248838,0.00040858,-0.00001994,0.00001906,-0.00003544,-0.000
 01219,0.00000945,-0.00000622,-0.00002899,-0.00004980,-0.00000022,-0.00
 003673,-0.00004264,-0.00001359,0.00019422,-0.00028464,-0.00002094,0.00
 011547,-0.00047362,0.00016546,-0.00000007,0.00000155,0.00000060,-0.000
 00049,0.00000039,0.00000042,-0.00000038,-0.00000092,-0.00000028,-0.001
 51301,0.00001317,0.00013666,0.29416841,0.00009010,-0.00058215,0.000183
 30,0.00007777,-0.00026216,0.00013518,0.00053417,-0.00007111,0.00158922
 ,-0.00028860,0.00087541,-0.00076074,-0.00000636,-0.00001695,0.00001496
 ,-0.00002763,-0.00000588,-0.00002048,-0.00000141,0.00000421,0.00000084
 ,-0.08181495,-0.07938316,-0.02909329,0.00008440,0.00007024,-0.00002511
 ,0.00716416,0.00145802,0.00353760,-0.00000580,0.00000305,0.00002403,0.
 00001781,-0.00000389,0.00004295,0.00000691,-0.00000846,0.00009020,0.00
 000624,0.00001086,-0.00003974,-0.00002555,0.00033687,0.00009349,0.0002
 7213,-0.00006798,-0.00053925,0.00000053,0.00000039,0.00000027,0.000000
 92,-0.00000036,-0.00000194,0.00000126,0.00000140,0.00000022,-0.0290002
 4,-0.00707950,-0.01007353,0.08588916,0.07738512,-0.00025906,0.00129398
 ,-0.00125947,0.00031619,0.00039777,0.00008702,0.00231476,-0.00292627,-
 0.00296529,-0.00249034,0.00091740,0.00116587,-0.00075639,0.00006801,0.
 00033218,-0.00018799,0.00004221,0.00000761,0.00002045,-0.00000246,-0.0
 0000466,-0.06766975,-0.02600140,-0.07298116,0.00008468,-0.00004202,0.0
 0005460,-0.03410008,-0.00742924,-0.02253586,0.00009260,-0.00004870,-0.
 00009687,0.00009149,-0.00001112,0.00003319,0.00013475,0.00018692,-0.00
 033137,0.00004623,0.00005795,-0.00002337,-0.00027540,-0.00012176,-0.00
 011324,0.00049835,-0.00066921,-0.00011856,0.00000001,-0.00000485,-0.00
 000182,0.00000158,-0.00000506,-0.00000530,-0.00000057,0.00000264,0.000
 00102,0.00716482,0.00096441,0.00395750,0.08302275,0.02736395,0.0886217
 0,0.00017710,-0.00043004,-0.00001545,0.00045557,0.00017034,-0.00010733
 ,0.00071228,-0.00020048,-0.00227939,0.00013992,0.00047430,-0.00068121,
 -0.00012477,-0.00003739,0.00000454,-0.00000194,-0.00000434,-0.00001045
 ,0.00000053,0.00000187,0.00000039,-0.20067740,0.11690689,0.08589766,0.
 00008294,0.00005732,-0.00002336,0.00132130,-0.00312080,-0.00278599,-0.
 00000209,0.00000415,0.00002297,0.00000111,-0.00000345,0.00001531,-0.00
 000416,0.00001009,0.00001844,-0.00001975,-0.00003625,-0.00004036,0.000
 44849,0.00029242,-0.00083425,0.00026621,-0.00028459,-0.00011585,0.0000
 0016,-0.00000028,0.00000030,0.00000083,-0.00000025,-0.00000128,0.00000
 013,0.00000059,-0.00000056,0.00528486,-0.00380315,-0.00359144,-0.01728
 646,0.01704082,0.01198129,0.20923931,-0.00016236,0.00009924,-0.0001603
 1,-0.00010900,0.00043934,0.00054047,-0.00003777,0.00042982,0.00123958,
 0.00032894,0.00039607,0.00121610,-0.00021255,0.00014302,0.00001131,0.0
 0000065,0.00000477,-0.00000072,0.00000434,0.00000092,-0.00000260,0.118
 22434,-0.14252307,-0.06796734,-0.00002161,-0.00001528,0.00001344,-0.00
 555572,0.00238117,0.00442612,-0.00000241,-0.00001478,-0.00000269,-0.00
 000404,-0.00000283,0.00000894,-0.00001926,-0.00006166,-0.00001966,-0.0
 0002630,-0.00011201,0.00005783,-0.00007076,0.00053809,0.00026068,-0.00
 017348,-0.00015229,0.00009770,0.,-0.00000023,-0.00000018,-0.00000005,0
 .00000049,0.00000075,-0.00000058,0.00000066,0.00000039,0.02317785,-0.0
 1414124,-0.01293614,-0.00831393,0.00733440,0.00598752,-0.12703569,0.14
 524763,-0.00018655,0.00018859,0.00032134,0.00151431,-0.00037629,-0.000
 87243,0.00277983,-0.00142959,0.00069447,-0.00340985,0.00144536,-0.0049
 3966,0.00032780,-0.00027248,0.00026880,0.00006632,0.00004152,0.0000387
 0,-0.00000448,-0.00000791,-0.00000224,0.07379299,-0.05841957,-0.093818
 84,-0.00003913,0.00001438,0.00001368,0.02759799,-0.01966786,-0.0222135
 5,-0.00002613,0.00001851,-0.00001177,-0.00002125,-0.00003627,-0.000110
 90,0.00000080,0.00003320,0.00000310,-0.00015860,0.00015307,-0.00031774
 ,-0.00125217,0.00046693,-0.00052417,0.00004684,-0.00009164,-0.00013440
 ,-0.00000130,-0.00000186,0.00000036,0.,-0.00000095,-0.00000160,-0.0000
 0174,-0.00000404,-0.00000287,-0.00668317,0.00324062,0.00483085,-0.0068
 7101,0.00748686,0.00622871,-0.08744373,0.06722931,0.11059271,0.0007283
 3,-0.00055642,0.00111985,0.00065459,0.00051568,0.00003047,0.00014916,0
 .00000895,-0.00028357,-0.00001867,0.00023673,0.00050565,0.00030788,-0.
 00150662,0.00180146,-0.00166564,-0.00065582,-0.00118803,0.00007802,0.0
 0021284,-0.00023475,0.00003065,-0.00003002,0.00005830,-0.23855217,0.10
 868772,-0.06424804,0.00038419,-0.00018485,-0.00009583,0.00260597,-0.00
 240068,0.00102004,0.00024434,0.00199572,0.00123431,0.00034059,-0.00013
 566,-0.00035606,0.00007572,-0.00019122,0.00018990,-0.00001221,0.000012
 97,-0.00003354,-0.00002800,-0.00009978,0.00000190,-0.00000629,-0.00002
 950,-0.00005083,0.00000417,0.00002422,0.00005353,0.00002029,0.00002331
 ,0.00001628,-0.00000413,0.00000056,-0.00000113,-0.00001184,0.00000339,
 0.00000525,0.00000095,0.00000465,-0.00001514,0.25156327,-0.00039438,-0
 .00012838,-0.00129070,0.00015723,0.00119868,0.00052410,-0.00009453,-0.
 00017331,-0.00010207,0.00009413,0.00003872,-0.00000013,0.00422111,-0.0
 0145718,0.00323806,-0.00678356,-0.00470000,-0.00015849,0.00107840,0.00
 048460,-0.00077745,-0.00000311,0.00003896,0.00004336,0.10235059,-0.111
 00851,0.03627122,-0.00000840,0.00006228,-0.00006809,0.03054825,-0.0226
 9510,0.00131123,0.00065451,0.00234280,0.00130623,-0.00018193,0.0004323
 9,0.00025374,-0.00004739,-0.00010953,-0.00004623,-0.00000329,0.0000106
 2,-0.00002849,-0.00007010,-0.00012561,0.00001544,0.00007336,-0.0003663
 8,-0.00018147,0.00000060,-0.00012985,-0.00011055,-0.00004119,0.0000382
 9,0.00007017,-0.00000074,-0.00000098,-0.00001631,-0.00000221,0.0000029
 8,-0.00000237,0.00000190,0.00000640,0.00000932,-0.11877129,0.12406760,
 -0.00173070,0.00091089,0.00134338,0.00134028,-0.00002291,-0.00626784,0
 .00002826,0.00002797,0.00005868,-0.00184771,0.00082127,0.00002469,-0.0
 2903167,0.01601782,-0.01238544,-0.00210244,-0.00275176,0.00013965,0.00
 060033,0.00017456,-0.00041695,0.00007943,-0.00003649,0.00009858,-0.063
 98428,0.03784143,-0.07252986,0.00037797,-0.00019395,0.00013636,0.01883
 114,-0.01281821,0.00254716,0.00082627,-0.00010464,0.00033594,0.0010143
 8,-0.00046999,-0.00036428,0.00026587,-0.00009912,-0.00019781,0.0000021
 4,-0.00000509,0.00001472,0.00007569,-0.00003851,-0.00050998,0.00005223
 ,-0.00020679,-0.00009590,-0.00000383,-0.00008227,-0.00008035,-0.000059
 85,0.00001457,0.00003804,-0.00001492,-0.00000771,-0.00001004,0.0000115
 1,0.00000964,0.00001413,0.00001493,-0.00000059,-0.00003106,0.06774057,
 -0.03344866,0.08404027,0.00031772,-0.00083012,-0.00079736,-0.00027891,
 0.00100721,-0.00225847,-0.00013609,-0.00037048,0.00075287,-0.00035444,
 -0.00006317,0.00155552,0.00224638,0.00171785,0.00371094,0.00136603,0.0
 0224288,0.00007728,-0.00036792,-0.00035802,0.00010127,-0.00001202,0.00
 004920,0.00023110,-0.21760462,-0.11053650,0.05673678,0.00038260,-0.000
 10420,-0.00088759,0.00184371,-0.00196577,-0.00385167,-0.00121593,-0.00
 030306,0.00089341,0.00010381,-0.00014077,-0.00002045,0.00004351,-0.000
 05884,-0.00029898,0.00004365,0.00006083,0.00001789,0.00002031,0.000028
 19,0.00002079,-0.00004023,-0.00001238,0.00002481,0.00008859,0.00003753
 ,0.00000838,0.00004213,-0.00016459,-0.00016001,-0.00000697,0.00001095,
 -0.00006269,0.00001697,-0.00001620,-0.00005168,-0.00001446,-0.00000040
 ,-0.00002021,-0.01773951,-0.01316619,0.00715904,0.23108376,0.00054562,
 -0.00087541,-0.00018231,-0.00021425,0.00097887,-0.00072133,-0.00044099
 ,-0.00016711,0.00026137,0.00012929,0.00021633,0.00047890,-0.00435911,-
 0.00051295,0.00523416,-0.00805231,0.00009367,-0.00065619,-0.00000047,0
 .00025910,-0.00039079,0.00003444,0.00004130,0.00013523,-0.10462753,-0.
 11642048,0.03969322,0.00012165,-0.00008067,-0.00048898,-0.02367344,-0.
 02687401,-0.00377128,0.00292503,0.00294485,0.00135325,0.00001441,0.000
 29412,-0.00000901,0.00011038,-0.00034281,0.00024419,0.00004713,0.00003
 810,0.00006380,-0.00001608,-0.00003757,0.00000237,0.00014715,-0.000025
 63,-0.00000260,0.00001860,0.00002123,0.00009718,0.00016086,0.00018881,
 0.00017938,-0.00000721,-0.00000455,-0.00004198,-0.00000251,0.00000303,
 -0.00001241,-0.00000214,0.00000073,-0.00001983,0.01283379,0.01110437,-
 0.00570771,0.12317370,0.13397271,-0.00144953,0.00017498,-0.00387579,-0
 .00008224,-0.00080793,-0.00002130,-0.00005555,-0.00187605,0.00003144,-
 0.00028742,-0.00111388,0.00061982,0.02806532,0.01716336,-0.01501223,-0
 .00339608,-0.00058741,0.00107800,-0.00008413,-0.00001195,-0.00040969,-
 0.00000125,0.00021521,0.00012503,0.06195934,0.04645184,-0.07095329,0.0
 0012570,0.00018016,-0.00038994,-0.01471068,-0.01559907,0.00265373,0.00
 118462,0.00083667,-0.00048384,0.00031070,0.00049716,-0.00000425,-0.000
 09739,0.00073326,-0.00028438,0.00004885,0.00022113,-0.00027373,0.00007
 731,0.00018858,0.00003248,0.00007519,-0.00008340,-0.00004921,-0.000009
 89,-0.00000483,0.00002368,0.00006595,0.00006342,0.00005376,-0.00001477
 ,0.00000009,-0.00007183,0.00004478,-0.00001881,-0.00005743,-0.00002476
 ,0.00000585,-0.00000381,-0.00794252,-0.00642411,0.00330436,-0.06416763
 ,-0.03704978,0.08365677,-0.00017890,-0.00031795,0.00071401,0.00011376,
 -0.00039142,0.00053688,-0.00021314,-0.00004725,-0.00022450,0.00019825,
 -0.00010850,-0.00047170,0.00024640,0.00153158,-0.00085661,-0.01735948,
 -0.01671884,-0.01658577,0.00043068,-0.00109214,0.00081052,0.00000462,-
 0.00000961,-0.00014299,0.00786845,0.00505505,0.00605354,-0.00014558,0.
 00009238,0.00035502,-0.34092151,-0.10433230,-0.14015998,-0.00499433,0.
 00468810,0.00235991,0.00004443,0.00015064,0.00000266,-0.00007732,0.000
 02943,0.00015781,0.00002950,0.00002785,0.00005577,0.00000960,0.0000375
 8,0.00002313,0.00002943,0.00020935,0.00002831,0.00050640,-0.00017752,-
 0.00025300,0.00093084,0.00104980,0.00042988,0.00000769,0.00000272,0.00
 003544,0.00000233,-0.00000305,0.00001607,-0.00000066,0.00000514,0.0000
 0757,0.00085034,0.00038820,0.00035537,0.00017194,0.00113399,0.00036607
 ,0.35244624,-0.00021161,0.00006739,-0.00026268,0.00008545,0.00000419,-
 0.00013492,-0.00000083,-0.00004960,0.00009432,0.00005724,0.00002688,0.
 00012164,-0.00006452,-0.00103311,0.00147514,0.00665887,0.00783217,0.01
 469424,0.00163867,-0.00063757,0.00072918,-0.00001103,0.00002809,0.0000
 0299,-0.02433678,-0.00948929,-0.00829853,-0.00003248,0.00000717,0.0000
 1388,-0.09867556,-0.09037785,-0.08433083,0.00708262,0.00183191,-0.0038
 3373,0.00001637,-0.00000511,-0.00009612,0.00002586,-0.00010956,-0.0004
 3394,0.00000262,0.00002490,0.,0.00001647,0.00002486,0.00000356,-0.0006
 1904,0.00001657,0.00013586,-0.00037951,-0.00023041,-0.00016728,0.00017
 814,-0.00152295,-0.00122644,0.00000516,-0.00000207,0.00000055,0.000005
 27,-0.00000438,-0.00000590,-0.00000186,0.00000062,0.00000062,0.0000013
 4,0.00106612,0.00017624,-0.00023762,-0.00481602,-0.00315450,0.10879675
 ,0.09734703,0.00017689,0.00033603,-0.00064637,-0.00024779,0.00046599,-
 0.00062769,0.00018127,0.00019920,0.00000215,-0.00015775,0.00024533,0.0
 0049783,-0.00053709,-0.00303874,-0.00056469,0.00768955,0.01062798,0.00
 146457,0.00010147,0.00089795,-0.00197640,-0.00001766,-0.00002361,0.000
 03367,-0.00896947,0.00120792,-0.00770105,0.00026258,-0.00020206,-0.000
 28821,-0.15062146,-0.09090050,-0.09341177,0.00302793,-0.00340606,0.004
 91216,-0.00000347,-0.00020692,0.00003234,-0.00000167,-0.00011113,0.000
 00516,-0.00002553,-0.00005779,-0.00005771,-0.00003488,-0.00005560,-0.0
 0002122,0.00062206,-0.00045591,-0.00026044,-0.00033809,0.00012955,0.00
 010587,0.00056033,-0.00106421,0.00037658,-0.00000669,-0.00000189,-0.00
 002892,-0.00000530,0.00000019,-0.00000914,-0.00000042,-0.00000578,-0.0
 0000769,0.00067192,-0.00038773,0.00079355,0.00128665,0.00131114,0.0003
 1166,0.14638661,0.08449666,0.09706574\\-0.00000007,0.00000034,0.000000
 95,-0.00000014,0.00000003,-0.00000084,-0.00000041,-0.00000002,-0.00000
 032,-0.00000047,0.00000043,0.00000097,0.00000095,0.00000004,-0.0000001
 1,0.00000039,0.00000028,0.00000037,-0.00000016,-0.00000006,-0.00000051
 ,0.00000065,0.00000070,0.00000090,-0.00000054,-0.00000023,0.00000030,0
 .00000062,-0.00000165,-0.00000121,0.00000009,-0.00000005,-0.00000042,-
 0.00000043,0.00000008,-0.00000013,-0.00000019,-0.00000030,0.00000001,0
 .00000011,0.00000024,0.,-0.00000001,-0.00000017,0.00000045,0.00000017,
 0.00000010,-0.00000035,-0.00000009,0.,0.00000007,0.00000004,0.00000009
 ,0.00000005,-0.00000001,-0.00000019,0.00000015,0.00000026,0.00000045,-
 0.00000046,0.00000022,0.00000003,0.00000012,-0.00000032,0.00000027,-0.
 00000010,-0.00000023,-0.00000016,-0.00000015,-0.00000026,-0.00000006,0
 .00000004,-0.00000016,-0.00000020,0.00000019\\\@


 WHERE THERE IS MUCH DESIRE TO LEARN, THERE OF NECESSITY WILL BE
 MUCH ARGUING, MUCH WRITING, MANY OPINIONS; FOR OPINION IN GOOD MEN
 IS BUT KNOWLEDGE IN THE MAKING. -- JOHN MILTON.
 Job cpu time:  0 days  1 hours 15 minutes  6.8 seconds.
 File lengths (MBytes):  RWF=    138 Int=      0 D2E=      0 Chk=      4 Scr=      1
 Normal termination of Gaussian 09 at Fri Feb 16 19:44:08 2018.
