 Entering Gaussian System, Link 0=g09
 Initial command:
 /home/fb_chem/chemsoft/lx24-amd64/Gaussian_09_C.01_NBO_3.1_64_istanbul-64/g09/l1.exe /local/2426268.1.parallel/Gau-10656.inp -scrdir=/local/2426268.1.parallel/
 Entering Link 1 = /home/fb_chem/chemsoft/lx24-amd64/Gaussian_09_C.01_NBO_3.1_64_istanbul-64/g09/l1.exe PID=     10657.
  
 Copyright (c) 1988,1990,1992,1993,1995,1998,2003,2009,2011,
            Gaussian, Inc.  All Rights Reserved.
  
 This is part of the Gaussian(R) 09 program.  It is based on
 the Gaussian(R) 03 system (copyright 2003, Gaussian, Inc.),
 the Gaussian(R) 98 system (copyright 1998, Gaussian, Inc.),
 the Gaussian(R) 94 system (copyright 1995, Gaussian, Inc.),
 the Gaussian 92(TM) system (copyright 1992, Gaussian, Inc.),
 the Gaussian 90(TM) system (copyright 1990, Gaussian, Inc.),
 the Gaussian 88(TM) system (copyright 1988, Gaussian, Inc.),
 the Gaussian 86(TM) system (copyright 1986, Carnegie Mellon
 University), and the Gaussian 82(TM) system (copyright 1983,
 Carnegie Mellon University). Gaussian is a federally registered
 trademark of Gaussian, Inc.
  
 This software contains proprietary and confidential information,
 including trade secrets, belonging to Gaussian, Inc.
  
 This software is provided under written license and may be
 used, copied, transmitted, or stored only in accord with that
 written license.
  
 The following legend is applicable only to US Government
 contracts under FAR:
  
                    RESTRICTED RIGHTS LEGEND
  
 Use, reproduction and disclosure by the US Government is
 subject to restrictions as set forth in subparagraphs (a)
 and (c) of the Commercial Computer Software - Restricted
 Rights clause in FAR 52.227-19.
  
 Gaussian, Inc.
 340 Quinnipiac St., Bldg. 40, Wallingford CT 06492
  
  
 ---------------------------------------------------------------
 Warning -- This program may not be used in any manner that
 competes with the business of Gaussian, Inc. or will provide
 assistance to any competitor of Gaussian, Inc.  The licensee
 of this program is prohibited from giving any competitor of
 Gaussian, Inc. access to this program.  By using this program,
 the user acknowledges that Gaussian, Inc. is engaged in the
 business of creating and licensing software in the field of
 computational chemistry and represents and warrants to the
 licensee that it is not a competitor of Gaussian, Inc. and that
 it will not use this program in any manner prohibited above.
 ---------------------------------------------------------------
  

 Cite this work as:
 Gaussian 09, Revision C.01,
 M. J. Frisch, G. W. Trucks, H. B. Schlegel, G. E. Scuseria, 
 M. A. Robb, J. R. Cheeseman, G. Scalmani, V. Barone, B. Mennucci, 
 G. A. Petersson, H. Nakatsuji, M. Caricato, X. Li, H. P. Hratchian, 
 A. F. Izmaylov, J. Bloino, G. Zheng, J. L. Sonnenberg, M. Hada, 
 M. Ehara, K. Toyota, R. Fukuda, J. Hasegawa, M. Ishida, T. Nakajima, 
 Y. Honda, O. Kitao, H. Nakai, T. Vreven, J. A. Montgomery, Jr., 
 J. E. Peralta, F. Ogliaro, M. Bearpark, J. J. Heyd, E. Brothers, 
 K. N. Kudin, V. N. Staroverov, T. Keith, R. Kobayashi, J. Normand, 
 K. Raghavachari, A. Rendell, J. C. Burant, S. S. Iyengar, J. Tomasi, 
 M. Cossi, N. Rega, J. M. Millam, M. Klene, J. E. Knox, J. B. Cross, 
 V. Bakken, C. Adamo, J. Jaramillo, R. Gomperts, R. E. Stratmann, 
 O. Yazyev, A. J. Austin, R. Cammi, C. Pomelli, J. W. Ochterski, 
 R. L. Martin, K. Morokuma, V. G. Zakrzewski, G. A. Voth, 
 P. Salvador, J. J. Dannenberg, S. Dapprich, A. D. Daniels, 
 O. Farkas, J. B. Foresman, J. V. Ortiz, J. Cioslowski, 
 and D. J. Fox, Gaussian, Inc., Wallingford CT, 2010.
 
 ******************************************
 Gaussian 09:  AM64L-G09RevC.01 23-Sep-2011
                26-Feb-2018 
 ******************************************
 %nprocs=4
 Will use up to    4 processors via shared memory.
 %chk=frag2-conf2.chk
 ----------------------------------------------------------------------
 #HF/6-31G* Geom=AllCheck Guess=Read Pop=(MK,ReadRadii) Integral=(Grid=
 UltraFine) iop(6/33=2)
 ----------------------------------------------------------------------
 1/29=7,38=1/1;
 2/12=2,40=1/2;
 3/5=1,6=6,7=1,11=9,14=-4,16=1,25=1,30=1,75=-5,116=-2/1,2,3;
 4/5=1/1;
 5/5=2,38=6/2;
 6/7=2,8=2,9=2,10=2,15=8,20=101,28=1,33=2/1,2;
 99/5=1,9=1/99;
 Structure from the checkpoint file:  frag2-conf2.chk
 ----------------------------
 Optimization for frag2-conf2
 ----------------------------
 Charge =  0 Multiplicity = 1
 Redundant internal coordinates found in file.
 C,0,-0.0571080422,1.2403032914,-1.9985082136
 C,0,2.5057872104,2.8990175072,0.4169765219
 C,0,0.0222675088,-3.389653253,0.1570970962
 C,0,0.0876975929,0.1685154704,-0.9250357749
 N,0,1.5403607582,1.8400795881,0.7518753674
 N,0,0.0293202699,-1.1685031311,-1.4551970672
 O,0,-1.4827155948,-3.0977756662,-2.014679815
 O,0,-1.9781768766,-1.6579775294,0.0459094513
 O,0,2.7848768397,0.4345175524,-1.0193399463
 O,0,1.7216227289,-0.6876850579,1.0293071933
 S,0,-1.035154298,-2.3379222669,-0.8460187056
 S,0,1.7080182546,0.3395558242,-0.0254992815
 H,0,0.7219211884,1.1357580454,-2.7605269765
 H,0,-1.039271383,1.1409753429,-2.4712037943
 H,0,0.0162264626,2.238194748,-1.5585425404
 H,0,2.4996910043,3.0659454,-0.6609356251
 H,0,3.5321354498,2.6695164757,0.7258751419
 H,0,2.1730393996,3.8149125683,0.9134454461
 H,0,-0.6265290392,-4.1213963103,0.6441736334
 H,0,0.7366063131,-3.8863409904,-0.5015264655
 H,0,0.5383758301,-2.7621693211,0.8852017562
 H,0,-0.6660841748,0.2790509103,-0.1410541098
 H,0,1.4741857362,1.6574919158,1.7510338062
 H,0,0.198141559,-1.2895104689,-2.4479322214
 Recover connectivity data from disk.
                          Input orientation:                          
 ---------------------------------------------------------------------
 Center     Atomic      Atomic             Coordinates (Angstroms)
 Number     Number       Type             X           Y           Z
 ---------------------------------------------------------------------
      1          6           0       -0.057108    1.240303   -1.998508
      2          6           0        2.505787    2.899018    0.416977
      3          6           0        0.022268   -3.389653    0.157097
      4          6           0        0.087698    0.168515   -0.925036
      5          7           0        1.540361    1.840080    0.751875
      6          7           0        0.029320   -1.168503   -1.455197
      7          8           0       -1.482716   -3.097776   -2.014680
      8          8           0       -1.978177   -1.657978    0.045909
      9          8           0        2.784877    0.434518   -1.019340
     10          8           0        1.721623   -0.687685    1.029307
     11         16           0       -1.035154   -2.337922   -0.846019
     12         16           0        1.708018    0.339556   -0.025499
     13          1           0        0.721921    1.135758   -2.760527
     14          1           0       -1.039271    1.140975   -2.471204
     15          1           0        0.016226    2.238195   -1.558543
     16          1           0        2.499691    3.065945   -0.660936
     17          1           0        3.532135    2.669516    0.725875
     18          1           0        2.173039    3.814913    0.913445
     19          1           0       -0.626529   -4.121396    0.644174
     20          1           0        0.736606   -3.886341   -0.501526
     21          1           0        0.538376   -2.762169    0.885202
     22          1           0       -0.666084    0.279051   -0.141054
     23          1           0        1.474186    1.657492    1.751034
     24          1           0        0.198142   -1.289510   -2.447932
 ---------------------------------------------------------------------
                    Distance matrix (angstroms):
                    1          2          3          4          5
     1  C    0.000000
     2  C    3.892856   0.000000
     3  C    5.107782   6.766298   0.000000
     4  C    1.523824   3.886360   3.719658   0.000000
     5  N    3.236703   1.471582   5.477999   2.777839   0.000000
     6  N    2.470831   5.116898   2.744640   1.439478   4.025665
     7  O    4.566349   7.601489   2.658342   3.784466   6.416793
     8  O    4.033631   6.403892   2.648177   2.923465   5.011477
     9  O    3.112063   2.866122   4.862129   2.711905   2.581013
    10  O    4.006081   3.722136   3.308956   2.687424   2.549396
    11  S    3.884392   6.446624   1.797365   2.747594   5.161612
    12  S    2.796387   2.717179   4.096596   1.861145   1.698232
    13  H    1.094755   4.048184   5.429677   2.169522   3.674627
    14  H    1.094510   4.898953   5.344289   2.146246   4.187062
    15  H    1.093039   3.246117   5.883547   2.165643   2.796339
    16  H    3.414570   1.090778   6.962870   3.779228   2.102165
    17  H    4.727323   1.096120   7.025398   4.565596   2.157732
    18  H    4.481255   1.093648   7.556696   4.585289   2.079989
    19  H    6.004651   7.690854   1.092533   4.623406   6.343990
    20  H    5.399391   7.072110   1.091221   4.128233   5.916834
    21  H    4.968921   6.011570   1.090981   3.474044   4.711947
    22  H    2.178301   4.151673   3.744611   1.093175   2.846495
    23  H    4.071606   2.094110   5.488385   3.361659   1.017858
    24  H    2.582071   5.574648   3.350777   2.111220   4.672757
                    6          7          8          9         10
     6  N    0.000000
     7  O    2.514233   0.000000
     8  O    2.554007   2.562134   0.000000
     9  O    3.217567   5.628512   5.310365   0.000000
    10  O    3.044312   5.034101   3.949311   2.566477   0.000000
    11  S    1.694623   1.464055   1.465316   4.723251   3.720208
    12  S    2.671386   5.094396   4.193241   1.468455   1.472422
    13  H    2.737371   4.831099   4.792867   2.789132   4.322868
    14  H    2.740045   4.286265   3.879631   4.151036   4.818725
    15  H    3.408290   5.561247   4.661767   3.348047   4.262173
    16  H    4.966300   7.462147   6.547242   2.670992   4.189517
    17  H    5.635351   8.119177   7.039396   2.932472   3.826334
    18  H    5.919496   8.350073   6.923709   3.941710   4.526653
    19  H    3.681993   2.974955   2.872856   5.929698   4.177621
    20  H    2.965870   2.799439   3.554622   4.809715   3.680368
    21  H    2.876869   3.550599   2.873445   4.346591   2.392556
    22  H    2.075084   3.947191   2.347045   3.564364   2.829394
    23  H    4.511519   6.748069   5.081200   3.299780   2.466165
    24  H    1.014232   2.506554   3.330372   3.421162   3.843746
                   11         12         13         14         15
    11  S    0.000000
    12  S    3.920094   0.000000
    13  H    4.338100   3.014416   0.000000
    14  H    3.839788   3.764485   1.784807   0.000000
    15  H    4.749099   2.969379   1.777115   1.775082   0.000000
    16  H    6.459967   2.909248   3.360710   4.416654   2.767393
    17  H    6.957401   3.052979   4.733362   5.784074   4.214999
    18  H    7.158603   3.629871   4.773016   5.378172   3.639863
    19  H    2.359752   5.079239   6.406869   6.129314   6.760879
    20  H    2.378111   4.362161   5.506794   5.683949   6.256690
    21  H    2.377626   3.437752   5.340306   5.384140   5.590006
    22  H    2.735276   2.377683   3.085797   2.512326   2.512582
    23  H    5.385611   2.224343   4.603508   4.940804   3.662807
    24  H    2.277348   3.286604   2.500797   2.727452   3.642638
                   16         17         18         19         20
    16  H    0.000000
    17  H    1.773793   0.000000
    18  H    1.773789   1.787248   0.000000
    19  H    7.945719   7.963521   8.419922   0.000000
    20  H    7.174132   7.231927   7.960829   1.796112   0.000000
    21  H    6.340680   6.204127   6.777236   1.806266   1.796127
    22  H    4.249611   4.908252   4.655632   4.470132   4.409985
    23  H    2.975399   2.512031   2.417522   6.247695   6.029273
    24  H    5.240275   6.071447   6.422944   4.273263   3.289676
                   21         22         23         24
    21  H    0.000000
    22  H    3.428257   0.000000
    23  H    4.599871   3.171885   0.000000
    24  H    3.659818   2.920438   5.286249   0.000000
 Stoichiometry    C4H12N2O4S2
 Framework group  C1[X(C4H12N2O4S2)]
 Deg. of freedom    66
 Full point group                 C1      NOp   1
 Largest Abelian subgroup         C1      NOp   1
 Largest concise Abelian subgroup C1      NOp   1
                         Standard orientation:                         
 ---------------------------------------------------------------------
 Center     Atomic      Atomic             Coordinates (Angstroms)
 Number     Number       Type             X           Y           Z
 ---------------------------------------------------------------------
      1          6           0       -0.805753    2.238723    0.066937
      2          6           0       -4.039067    0.123690   -0.409141
      3          6           0        2.444314   -1.697480    0.248051
      4          6           0       -0.227895    0.852503   -0.190970
      5          7           0       -2.695101   -0.199359   -0.914067
      6          7           0        0.960371    0.587827    0.577188
      7          8           0        3.470507    0.729130    0.601984
      8          8           0        2.254534    0.199356   -1.590110
      9          8           0       -1.993379   -0.214081    1.569680
     10          8           0       -0.843113   -1.762674   -0.123114
     11         16           0        2.401557    0.057164   -0.139139
     12         16           0       -1.465307   -0.474206    0.224378
     13          1           0       -1.042715    2.370497    1.127585
     14          1           0       -0.071883    2.992623   -0.234758
     15          1           0       -1.717732    2.390232   -0.516222
     16          1           0       -3.978752    0.990600    0.250121
     17          1           0       -4.508924   -0.698689    0.142590
     18          1           0       -4.659371    0.383984   -1.271426
     19          1           0        3.317454   -2.114262   -0.259441
     20          1           0        2.538117   -1.808213    1.329579
     21          1           0        1.517851   -2.149924   -0.108601
     22          1           0       -0.014248    0.695988   -1.251579
     23          1           0       -2.687066   -0.983208   -1.563336
     24          1           0        1.132386    1.165314    1.393023
 ---------------------------------------------------------------------
 Rotational constants (GHZ):      1.5246338      0.4203799      0.3898944
 Standard basis: 6-31G(d) (6D, 7F)
 There are   212 symmetry adapted basis functions of A   symmetry.
 Integral buffers will be    131072 words long.
 Raffenetti 1 integral format.
 Two-electron integral symmetry is turned on.
   212 basis functions,   432 primitive gaussians,   212 cartesian basis functions
    57 alpha electrons       57 beta electrons
       nuclear repulsion energy      1101.0579330740 Hartrees.
 NAtoms=   24 NActive=   24 NUniq=   24 SFac= 1.00D+00 NAtFMM=   60 NAOKFM=F Big=F
 One-electron integrals computed using PRISM.
 NBasis=   212 RedAO= T  NBF=   212
 NBsUse=   212 1.00D-06 NBFU=   212
 Initial guess read from the checkpoint file:  frag2-conf2.chk
 B after Tr=     0.000000    0.000000    0.000000
         Rot=    1.000000    0.000000    0.000000    0.000000 Ang=   0.00 deg.
 Initial guess orbital symmetries:
       Occupied  (A) (A) (A) (A) (A) (A) (A) (A) (A) (A) (A) (A)
                 (A) (A) (A) (A) (A) (A) (A) (A) (A) (A) (A) (A)
                 (A) (A) (A) (A) (A) (A) (A) (A) (A) (A) (A) (A)
                 (A) (A) (A) (A) (A) (A) (A) (A) (A) (A) (A) (A)
                 (A) (A) (A) (A) (A) (A) (A) (A) (A)
       Virtual   (A) (A) (A) (A) (A) (A) (A) (A) (A) (A) (A) (A)
                 (A) (A) (A) (A) (A) (A) (A) (A) (A) (A) (A) (A)
                 (A) (A) (A) (A) (A) (A) (A) (A) (A) (A) (A) (A)
                 (A) (A) (A) (A) (A) (A) (A) (A) (A) (A) (A) (A)
                 (A) (A) (A) (A) (A) (A) (A) (A) (A) (A) (A) (A)
                 (A) (A) (A) (A) (A) (A) (A) (A) (A) (A) (A) (A)
                 (A) (A) (A) (A) (A) (A) (A) (A) (A) (A) (A) (A)
                 (A) (A) (A) (A) (A) (A) (A) (A) (A) (A) (A) (A)
                 (A) (A) (A) (A) (A) (A) (A) (A) (A) (A) (A) (A)
                 (A) (A) (A) (A) (A) (A) (A) (A) (A) (A) (A) (A)
                 (A) (A) (A) (A) (A) (A) (A) (A) (A) (A) (A) (A)
                 (A) (A) (A) (A) (A) (A) (A) (A) (A) (A) (A) (A)
                 (A) (A) (A) (A) (A) (A) (A) (A) (A) (A) (A)
 Requested convergence on RMS density matrix=1.00D-08 within 128 cycles.
 Requested convergence on MAX density matrix=1.00D-06.
 Requested convergence on             energy=1.00D-06.
 No special actions if energy rises.
 SCF Done:  E(RHF) =  -1361.66435843     A.U. after   13 cycles
             Convg  =    0.3081D-08             -V/T =  2.0021

 **********************************************************************

            Population analysis using the SCF density.

 **********************************************************************

 Orbital symmetries:
 BldTbl:  Degeneracy threshold= 1.00D-02
       Occupied  (A) (A) (A) (A) (A) (A) (A) (A) (A) (A) (A) (A)
                 (A) (A) (A) (A) (A) (A) (A) (A) (A) (A) (A) (A)
                 (A) (A) (A) (A) (A) (A) (A) (A) (A) (A) (A) (A)
                 (A) (A) (A) (A) (A) (A) (A) (A) (A) (A) (A) (A)
                 (A) (A) (A) (A) (A) (A) (A) (A) (A)
       Virtual   (A) (A) (A) (A) (A) (A) (A) (A) (A) (A) (A) (A)
                 (A) (A) (A) (A) (A) (A) (A) (A) (A) (A) (A) (A)
                 (A) (A) (A) (A) (A) (A) (A) (A) (A) (A) (A) (A)
                 (A) (A) (A) (A) (A) (A) (A) (A) (A) (A) (A) (A)
                 (A) (A) (A) (A) (A) (A) (A) (A) (A) (A) (A) (A)
                 (A) (A) (A) (A) (A) (A) (A) (A) (A) (A) (A) (A)
                 (A) (A) (A) (A) (A) (A) (A) (A) (A) (A) (A) (A)
                 (A) (A) (A) (A) (A) (A) (A) (A) (A) (A) (A) (A)
                 (A) (A) (A) (A) (A) (A) (A) (A) (A) (A) (A) (A)
                 (A) (A) (A) (A) (A) (A) (A) (A) (A) (A) (A) (A)
                 (A) (A) (A) (A) (A) (A) (A) (A) (A) (A) (A) (A)
                 (A) (A) (A) (A) (A) (A) (A) (A) (A) (A) (A) (A)
                 (A) (A) (A) (A) (A) (A) (A) (A) (A) (A) (A)
 The electronic state is 1-A.
 Alpha  occ. eigenvalues --  -92.22217 -92.21371 -20.57070 -20.57055 -20.56744
 Alpha  occ. eigenvalues --  -20.56508 -15.62578 -15.62212 -11.34003 -11.28641
 Alpha  occ. eigenvalues --  -11.27331 -11.25981  -9.19293  -9.18661  -6.87904
 Alpha  occ. eigenvalues --   -6.87868  -6.87741  -6.87222  -6.87216  -6.87079
 Alpha  occ. eigenvalues --   -1.46455  -1.46001  -1.34613  -1.34534  -1.26054
 Alpha  occ. eigenvalues --   -1.23957  -1.07433  -1.02883  -0.97484  -0.91953
 Alpha  occ. eigenvalues --   -0.85777  -0.82721  -0.74135  -0.72029  -0.71258
 Alpha  occ. eigenvalues --   -0.69323  -0.67800  -0.66726  -0.64400  -0.64221
 Alpha  occ. eigenvalues --   -0.61146  -0.60707  -0.59980  -0.59637  -0.58734
 Alpha  occ. eigenvalues --   -0.57263  -0.55365  -0.52547  -0.51714  -0.50351
 Alpha  occ. eigenvalues --   -0.50197  -0.48976  -0.47826  -0.47321  -0.46388
 Alpha  occ. eigenvalues --   -0.43842  -0.41852
 Alpha virt. eigenvalues --    0.18750   0.20142   0.22513   0.22947   0.23395
 Alpha virt. eigenvalues --    0.24020   0.24639   0.24737   0.25751   0.27067
 Alpha virt. eigenvalues --    0.27087   0.28034   0.29245   0.29490   0.31192
 Alpha virt. eigenvalues --    0.31378   0.32463   0.33015   0.34205   0.35205
 Alpha virt. eigenvalues --    0.38073   0.39625   0.41398   0.51465   0.53494
 Alpha virt. eigenvalues --    0.55005   0.56591   0.60232   0.63505   0.64747
 Alpha virt. eigenvalues --    0.69130   0.71410   0.71764   0.73426   0.74758
 Alpha virt. eigenvalues --    0.74990   0.76058   0.77205   0.78929   0.80522
 Alpha virt. eigenvalues --    0.88064   0.91041   0.91669   0.94503   0.96539
 Alpha virt. eigenvalues --    0.98543   1.00898   1.02356   1.03001   1.03948
 Alpha virt. eigenvalues --    1.04735   1.07605   1.09170   1.10639   1.11408
 Alpha virt. eigenvalues --    1.13096   1.13361   1.13871   1.14995   1.15526
 Alpha virt. eigenvalues --    1.16240   1.16673   1.18357   1.18766   1.21247
 Alpha virt. eigenvalues --    1.21779   1.23836   1.24940   1.27094   1.28763
 Alpha virt. eigenvalues --    1.30487   1.31816   1.33159   1.34377   1.36132
 Alpha virt. eigenvalues --    1.37321   1.41323   1.41912   1.45783   1.46200
 Alpha virt. eigenvalues --    1.48994   1.49213   1.50602   1.52373   1.54630
 Alpha virt. eigenvalues --    1.59700   1.64815   1.67409   1.68436   1.69390
 Alpha virt. eigenvalues --    1.76447   1.77187   1.81654   1.85769   1.89173
 Alpha virt. eigenvalues --    1.92889   1.96503   1.97916   2.02146   2.07199
 Alpha virt. eigenvalues --    2.08821   2.09360   2.09960   2.10505   2.11715
 Alpha virt. eigenvalues --    2.13191   2.14787   2.15780   2.18662   2.21812
 Alpha virt. eigenvalues --    2.23825   2.28120   2.29185   2.30655   2.31436
 Alpha virt. eigenvalues --    2.33080   2.37864   2.38692   2.39537   2.43368
 Alpha virt. eigenvalues --    2.43570   2.46841   2.47742   2.49949   2.52946
 Alpha virt. eigenvalues --    2.54063   2.57065   2.60758   2.61807   2.62410
 Alpha virt. eigenvalues --    2.63257   2.65700   2.67546   2.73841   2.74366
 Alpha virt. eigenvalues --    2.80566   2.96306   2.98087   3.07401   3.10751
 Alpha virt. eigenvalues --    3.14262   3.18138   3.18884   4.13488   4.20747
 Alpha virt. eigenvalues --    4.27902   4.34439   4.36471   4.37892   4.39096
 Alpha virt. eigenvalues --    4.49759   4.63547   4.65766   4.67260   4.83995
          Condensed to atoms (all electrons):
              1          2          3          4          5          6
     1  C    5.186381  -0.000093  -0.000082   0.291203   0.000335  -0.052823
     2  C   -0.000093   4.944960   0.000000   0.000526   0.199517  -0.000018
     3  C   -0.000082   0.000000   5.513074   0.000222  -0.000006  -0.059988
     4  C    0.291203   0.000526   0.000222   5.347349  -0.051398   0.175838
     5  N    0.000335   0.199517  -0.000006  -0.051398   7.476392   0.002099
     6  N   -0.052823  -0.000018  -0.059988   0.175838   0.002099   7.555804
     7  O   -0.000034   0.000000  -0.060314   0.001053   0.000000  -0.053941
     8  O   -0.000006   0.000000  -0.058892  -0.000365   0.000001  -0.056189
     9  O    0.003479   0.004379  -0.000018  -0.058552  -0.049763   0.003167
    10  O    0.001593   0.000594  -0.005065  -0.057842  -0.052486   0.003766
    11  S    0.000920   0.000000   0.313977  -0.016073   0.000038   0.163726
    12  S   -0.040530  -0.019261  -0.000273   0.301333   0.165204  -0.055775
    13  H    0.390372   0.000022   0.000000  -0.038674   0.000347  -0.002222
    14  H    0.385525  -0.000003   0.000005  -0.031998  -0.000137  -0.000570
    15  H    0.388556  -0.000641   0.000002  -0.034352   0.003324   0.003882
    16  H    0.000308   0.398573   0.000000   0.000199  -0.035312  -0.000009
    17  H   -0.000005   0.403495   0.000000  -0.000065  -0.045093   0.000002
    18  H    0.000063   0.393174   0.000000  -0.000084  -0.037387   0.000000
    19  H    0.000001   0.000000   0.364523  -0.000038   0.000000   0.002269
    20  H    0.000001   0.000000   0.356013   0.000113   0.000000   0.001121
    21  H    0.000000   0.000000   0.351479   0.000260   0.000009  -0.000913
    22  H   -0.020127   0.000031  -0.000101   0.373056   0.004133  -0.033107
    23  H    0.000014  -0.024300   0.000000   0.001108   0.313856  -0.000044
    24  H   -0.001458   0.000000   0.001040  -0.024088  -0.000010   0.315223
              7          8          9         10         11         12
     1  C   -0.000034  -0.000006   0.003479   0.001593   0.000920  -0.040530
     2  C    0.000000   0.000000   0.004379   0.000594   0.000000  -0.019261
     3  C   -0.060314  -0.058892  -0.000018  -0.005065   0.313977  -0.000273
     4  C    0.001053  -0.000365  -0.058552  -0.057842  -0.016073   0.301333
     5  N    0.000000   0.000001  -0.049763  -0.052486   0.000038   0.165204
     6  N   -0.053941  -0.056189   0.003167   0.003766   0.163726  -0.055775
     7  O    8.330928  -0.035299   0.000000   0.000000   0.494757  -0.000076
     8  O   -0.035299   8.354937   0.000000  -0.000112   0.475635  -0.000709
     9  O    0.000000   0.000000   8.370337  -0.034706   0.000059   0.453697
    10  O    0.000000  -0.000112  -0.034706   8.374476   0.003791   0.467598
    11  S    0.494757   0.475635   0.000059   0.003791  13.009210  -0.002314
    12  S   -0.000076  -0.000709   0.453697   0.467598  -0.002314  13.128655
    13  H    0.000003  -0.000004   0.004503   0.000009  -0.000152  -0.006013
    14  H   -0.000029   0.000105  -0.000003  -0.000026   0.000221   0.003710
    15  H    0.000000   0.000000  -0.000521  -0.000014   0.000013  -0.002827
    16  H    0.000000   0.000000   0.001026  -0.000020   0.000000  -0.002329
    17  H    0.000000   0.000000   0.000550   0.000225   0.000000  -0.003845
    18  H    0.000000   0.000000   0.000237  -0.000059   0.000000   0.002266
    19  H    0.000221   0.000535   0.000000   0.000091  -0.020285   0.000026
    20  H    0.000798   0.001591   0.000001  -0.000020  -0.013176   0.000007
    21  H    0.001384   0.000616   0.000002   0.006826  -0.009713  -0.000224
    22  H    0.000125   0.008428   0.001333   0.001471  -0.002556  -0.028438
    23  H    0.000000   0.000000   0.000731   0.003284  -0.000002  -0.009788
    24  H    0.002764   0.000658   0.000225  -0.000002  -0.006302   0.000307
             13         14         15         16         17         18
     1  C    0.390372   0.385525   0.388556   0.000308  -0.000005   0.000063
     2  C    0.000022  -0.000003  -0.000641   0.398573   0.403495   0.393174
     3  C    0.000000   0.000005   0.000002   0.000000   0.000000   0.000000
     4  C   -0.038674  -0.031998  -0.034352   0.000199  -0.000065  -0.000084
     5  N    0.000347  -0.000137   0.003324  -0.035312  -0.045093  -0.037387
     6  N   -0.002222  -0.000570   0.003882  -0.000009   0.000002   0.000000
     7  O    0.000003  -0.000029   0.000000   0.000000   0.000000   0.000000
     8  O   -0.000004   0.000105   0.000000   0.000000   0.000000   0.000000
     9  O    0.004503  -0.000003  -0.000521   0.001026   0.000550   0.000237
    10  O    0.000009  -0.000026  -0.000014  -0.000020   0.000225  -0.000059
    11  S   -0.000152   0.000221   0.000013   0.000000   0.000000   0.000000
    12  S   -0.006013   0.003710  -0.002827  -0.002329  -0.003845   0.002266
    13  H    0.485474  -0.022748  -0.021854   0.000043  -0.000001   0.000001
    14  H   -0.022748   0.476666  -0.019225   0.000006   0.000000  -0.000001
    15  H   -0.021854  -0.019225   0.479247   0.000083   0.000047  -0.000056
    16  H    0.000043   0.000006   0.000083   0.481884  -0.028136  -0.023353
    17  H   -0.000001   0.000000   0.000047  -0.028136   0.514333  -0.032111
    18  H    0.000001  -0.000001  -0.000056  -0.023353  -0.032111   0.510151
    19  H    0.000000   0.000000   0.000000   0.000000   0.000000   0.000000
    20  H    0.000000   0.000000   0.000000   0.000000   0.000000   0.000000
    21  H    0.000000   0.000000   0.000000   0.000000   0.000000   0.000000
    22  H    0.003074  -0.003364  -0.001830  -0.000008   0.000003  -0.000004
    23  H   -0.000004   0.000002   0.000039   0.002933  -0.000715  -0.003278
    24  H    0.002261   0.000146   0.000054   0.000000   0.000000   0.000000
             19         20         21         22         23         24
     1  C    0.000001   0.000001   0.000000  -0.020127   0.000014  -0.001458
     2  C    0.000000   0.000000   0.000000   0.000031  -0.024300   0.000000
     3  C    0.364523   0.356013   0.351479  -0.000101   0.000000   0.001040
     4  C   -0.000038   0.000113   0.000260   0.373056   0.001108  -0.024088
     5  N    0.000000   0.000000   0.000009   0.004133   0.313856  -0.000010
     6  N    0.002269   0.001121  -0.000913  -0.033107  -0.000044   0.315223
     7  O    0.000221   0.000798   0.001384   0.000125   0.000000   0.002764
     8  O    0.000535   0.001591   0.000616   0.008428   0.000000   0.000658
     9  O    0.000000   0.000001   0.000002   0.001333   0.000731   0.000225
    10  O    0.000091  -0.000020   0.006826   0.001471   0.003284  -0.000002
    11  S   -0.020285  -0.013176  -0.009713  -0.002556  -0.000002  -0.006302
    12  S    0.000026   0.000007  -0.000224  -0.028438  -0.009788   0.000307
    13  H    0.000000   0.000000   0.000000   0.003074  -0.000004   0.002261
    14  H    0.000000   0.000000   0.000000  -0.003364   0.000002   0.000146
    15  H    0.000000   0.000000   0.000000  -0.001830   0.000039   0.000054
    16  H    0.000000   0.000000   0.000000  -0.000008   0.002933   0.000000
    17  H    0.000000   0.000000   0.000000   0.000003  -0.000715   0.000000
    18  H    0.000000   0.000000   0.000000  -0.000004  -0.003278   0.000000
    19  H    0.453719  -0.016416  -0.013969   0.000012   0.000000  -0.000022
    20  H   -0.016416   0.459231  -0.016022  -0.000013   0.000000  -0.000106
    21  H   -0.013969  -0.016022   0.401008  -0.000079   0.000003  -0.000011
    22  H    0.000012  -0.000013  -0.000079   0.414553  -0.000098   0.001991
    23  H    0.000000   0.000000   0.000003  -0.000098   0.309022   0.000000
    24  H   -0.000022  -0.000106  -0.000011   0.001991   0.000000   0.278034
 Mulliken atomic charges:
              1
     1  C   -0.533591
     2  C   -0.300957
     3  C   -0.715595
     4  C   -0.178729
     5  N   -0.893663
     6  N   -0.911299
     7  O   -0.682340
     8  O   -0.690929
     9  O   -0.700163
    10  O   -0.713373
    11  S    1.608224
    12  S    1.649599
    13  H    0.205562
    14  H    0.211717
    15  H    0.206071
    16  H    0.204111
    17  H    0.191315
    18  H    0.190441
    19  H    0.229332
    20  H    0.226877
    21  H    0.279346
    22  H    0.281514
    23  H    0.407236
    24  H    0.429295
 Sum of Mulliken atomic charges =   0.00000
 Mulliken charges with hydrogens summed into heavy atoms:
              1
     1  C    0.089759
     2  C    0.284910
     3  C    0.019959
     4  C    0.102785
     5  N   -0.486427
     6  N   -0.482004
     7  O   -0.682340
     8  O   -0.690929
     9  O   -0.700163
    10  O   -0.713373
    11  S    1.608224
    12  S    1.649599
 Sum of Mulliken charges with hydrogens summed into heavy atoms =   0.00000
 DipInt: DoE/N= T F RetVal/Mat= T F Init=T NMatP=  1 IDeriv=0 Min/MaxMlt=  0  4
 Entering OneElI...
 OneElI was handed    33436596 working-precision words.
 Multipole integrals L=0 to 4 MinM= 0 MaxM= 0.
 Requested accuracy = 0.1000D-12
 PrsmSu:  NPrtUS=   1 ThrOK=F IAlg=1 NPAlg=1 LenDen=           0.
 Prism:   IPart=     0 DynPar=F LinDyn=F Incr=          24.
 PRISM was handed    33212077 working-precision words and  2467 shell-pairs
 IPart=  0 NShTot=        2467 NBatch=          65 AvBLen=        38.0
 PrSmSu:  NxtVal=             25.
 Electronic moments (au):
       -114.00000000         -1.66200831          0.24906273         -0.30215326
      -2159.63123800       -508.37609847       -301.10482112         -7.85883677
          8.43989815          2.21703712        779.68548222       -197.17395945
         38.50547373        -74.48134792         88.63380485        384.47711375
         65.43882475        -26.53097501        -70.60837215        -15.63817476
     -79321.40376029      -7918.53509910      -2593.11545413       -252.19820201
      -4678.51770251       2193.27738262        -47.47265789       1193.16172390
        128.04962015      -5885.28206750      -5973.56586351       -773.73662886
         -5.41931503       -381.48278176       -247.50289664
 Electronic spatial extent (au):  <R**2>=           2969.1122
 DipInt: DoE/N= F T RetVal/Mat= T F Init=T NMatP=  1 IDeriv=0 Min/MaxMlt=  0  4
 Nuclear    moments (au):
        114.00000000          0.00000000          0.00000000          0.00000000
       2094.55836512        446.48813163        231.99284595          0.00000000
          0.00000000          0.00000000       -919.03695872        207.66354325
        -35.19562355         86.70563657       -145.75048013       -414.19457803
        -69.09281807         22.71711817         72.98093506          5.79508935
      72170.19333234       6192.25150236       1610.67378569         17.73965378
       4744.18340822      -2216.58369961         60.91849821      -1063.46065407
        -84.40842584       4464.51253542       4512.72805258        351.72459112
         29.74808110        383.03075062        267.94076196
 Total      moments (au):
          0.00000000         -1.66200831          0.24906273         -0.30215326
        -65.07287288        -61.88796684        -69.11197517         -7.85883677
          8.43989815          2.21703712       -139.35147650         10.48958380
          3.30985018         12.22428865        -57.11667528        -29.71746428
         -3.65399332         -3.81385684          2.37256291         -9.84308541
      -7151.21042795      -1726.28359674       -982.44166843       -234.45854824
         65.66570571        -23.30631699         13.44584031        129.70106984
         43.64119431      -1420.76953208      -1460.83781093       -422.01203774
         24.32876607          1.54796885         20.43786532
 Traceless Quadrup. (au):
          0.28473208          3.46963813         -3.75437021         -7.85883677
          8.43989815          2.21703712
 Charge=              0.0000 electrons
 Dipole moment (field-independent basis, Debye):
    X=             -4.2244    Y=              0.6331    Z=             -0.7680  Tot=              4.3401
 Quadrupole moment (field-independent basis, Debye-Ang):
   XX=            -87.5252   YY=            -83.2414   ZZ=            -92.9580
   XY=            -10.5704   XZ=             11.3520   YZ=              2.9820
 Traceless Quadrupole moment (field-independent basis, Debye-Ang):
   XX=              0.3830   YY=              4.6668   ZZ=             -5.0498
   XY=            -10.5704   XZ=             11.3520   YZ=              2.9820
 Octapole moment (field-independent basis, Debye-Ang**2):
  XXX=            -99.1850  YYY=              7.4661  ZZZ=              2.3558  XYY=              8.7008
  XXY=            -40.6534  XXZ=            -21.1517  XZZ=             -2.6008  YZZ=             -2.7146
  YYZ=              1.6887  XYZ=             -7.0059
 Hexadecapole moment (field-independent basis, Debye-Ang**3):
 XXXX=          -2693.4886 YYYY=           -650.2011 ZZZZ=           -370.0346 XXXY=            -88.3083
 XXXZ=             24.7329 YYYX=             -8.7783 YYYZ=              5.0643 ZZZX=             48.8516
 ZZZY=             16.4374 XXYY=           -535.1299 XXZZ=           -550.2215 YYZZ=           -158.9500
 XXYZ=              9.1634 YYXZ=              0.5830 ZZXY=              7.6979
 N-N= 1.101057933074D+03 E-N=-5.422268956145D+03  KE= 1.358790339591D+03
 Entering OneElI...
 OneElI was handed    33345896 working-precision words.
 Calculate electrostatic properties
    NBasis =   212  MinDer = 0  MaxDer = 0
    NGrid  =    24  NMatD  =   1
 Requested accuracy = 0.1000D-12
 PrsmSu:  NPrtUS=   4 ThrOK=T IAlg=1 NPAlg=1 LenDen=           0.
 Prism:   IPart=     0 DynPar=F LinDyn=F Incr=         136.
 PRISM was handed     8228228 working-precision words and  2269 shell-pairs
 PRISM was handed     8228228 working-precision words and  2269 shell-pairs
 PRISM was handed     8228228 working-precision words and  2269 shell-pairs
 PRISM was handed     8228228 working-precision words and  2269 shell-pairs
 IPart=  3 NShTot=       13152 NBatch=         548 AvBLen=        24.0
 IPart=  1 NShTot=       13800 NBatch=         575 AvBLen=        24.0
 IPart=  0 NShTot=       14112 NBatch=         588 AvBLen=        24.0
 IPart=  2 NShTot=       13392 NBatch=         558 AvBLen=        24.0
 PrSmSu:  NxtVal=            545.
 --------------------------------------------------------
       Center         ----      EFG at Nuclei      ----
                      3XX-RR        3YY-RR        3ZZ-RR
 --------------------------------------------------------
     1   Atom        0.043996     -0.106075      0.062080
     2   Atom       -0.261443      0.136772      0.124671
     3   Atom        0.163033     -0.271846      0.108813
     4   Atom       -0.203220      0.031777      0.171443
     5   Atom       -0.493603      0.658185     -0.164582
     6   Atom       -0.621217      0.776839     -0.155622
     7   Atom       -0.500498      0.433875      0.066623
     8   Atom        0.639884      0.911123     -1.551007
     9   Atom        0.510166      0.700087     -1.210253
    10   Atom        0.401473     -0.998038      0.596565
    11   Atom       -0.542688      0.341229      0.201459
    12   Atom       -0.110042      0.272139     -0.162097
    13   Atom        0.128835      0.134934     -0.263769
    14   Atom       -0.053060     -0.065390      0.118450
    15   Atom       -0.159406      0.132392      0.027014
    16   Atom        0.131387     -0.129527     -0.001861
    17   Atom        0.057061     -0.102159      0.045098
    18   Atom       -0.001637      0.130353     -0.128716
    19   Atom       -0.130876      0.072788      0.058088
    20   Atom        0.155582      0.131920     -0.287501
    21   Atom       -0.155671      0.055081      0.100589
    22   Atom        0.120378      0.129953     -0.250331
    23   Atom        0.158194     -0.129804     -0.028391
    24   Atom        0.140805      0.024828     -0.165633
 --------------------------------------------------------
                        XY            XZ            YZ
 --------------------------------------------------------
     1   Atom        0.048612      0.007518     -0.028119
     2   Atom        0.117740      0.128790     -0.027957
     3   Atom        0.036549      0.017568      0.095360
     4   Atom       -0.142816     -0.119537      0.138091
     5   Atom        0.407605     -0.439842     -0.603244
     6   Atom        0.488077     -0.141276     -0.704157
     7   Atom       -0.808478     -0.864232     -0.604875
     8   Atom        0.004319     -0.234696      0.185124
     9   Atom        0.227120      0.761977     -0.422872
    10   Atom        0.926526      0.273664     -0.551889
    11   Atom        0.285815      0.519084     -0.112660
    12   Atom        0.216758     -0.475711      0.144818
    13   Atom        0.018320      0.088184     -0.052207
    14   Atom       -0.200004      0.083893      0.082557
    15   Atom        0.053931     -0.198345      0.031410
    16   Atom       -0.018564     -0.008957     -0.217760
    17   Atom       -0.131184      0.097630      0.162942
    18   Atom        0.064751     -0.191144      0.079992
    19   Atom        0.133756      0.169272     -0.071788
    20   Atom        0.006469     -0.038032      0.042507
    21   Atom       -0.148839     -0.125265     -0.054627
    22   Atom        0.007952      0.064483     -0.056453
    23   Atom        0.017066     -0.016049     -0.290639
    24   Atom       -0.032304     -0.085910     -0.284120
 --------------------------------------------------------


 ---------------------------------------------------------------------------------
              Nuclear Quadrupole in Principal Axis System
 ---------------------------------------------------------------------------------

       Atom             a.u.   MegaHertz   Gauss  10(-4) cm-1        Axes

              Baa    -0.1250   -16.770    -5.984    -5.594 -0.2795  0.9478  0.1537
     1 C(13)  Bbb     0.0583     7.823     2.791     2.609  0.9592  0.2684  0.0891
              Bcc     0.0667     8.947     3.193     2.984 -0.0432 -0.1723  0.9841
 
              Baa    -0.3316   -44.500   -15.879   -14.843  0.9278 -0.2498 -0.2772
     2 C(13)  Bbb     0.1584    21.250     7.582     7.088  0.0865 -0.5788  0.8109
              Bcc     0.1733    23.250     8.296     7.755  0.3630  0.7763  0.5154
 
              Baa    -0.2966   -39.797   -14.200   -13.275 -0.0687  0.9718 -0.2256
     3 C(13)  Bbb     0.1177    15.798     5.637     5.270 -0.4712  0.1678  0.8660
              Bcc     0.1788    23.998     8.563     8.005  0.8794  0.1658  0.4463
 
              Baa    -0.2772   -37.204   -13.275   -12.410  0.9210  0.3664  0.1326
     4 C(13)  Bbb    -0.0401    -5.387    -1.922    -1.797 -0.2132  0.7587 -0.6156
              Bcc     0.3174    42.590    15.197    14.207 -0.3261  0.5387  0.7768
 
              Baa    -0.7988   -30.807   -10.993   -10.276  0.8172  0.0100  0.5762
     5 N(14)  Bbb    -0.3732   -14.394    -5.136    -4.801 -0.4755  0.5765  0.6644
              Bcc     1.1720    45.202    16.129    15.078  0.3256  0.8170 -0.4759
 
              Baa    -0.7920   -30.544   -10.899   -10.188  0.8997 -0.3780 -0.2185
     6 N(14)  Bbb    -0.4931   -19.017    -6.786    -6.343  0.3559  0.3448  0.8686
              Bcc     1.2850    49.561    17.685    16.532  0.2529  0.8592 -0.4448
 
              Baa    -1.6222   117.385    41.886    39.155  0.7252  0.4408  0.5290
     7 O(17)  Bbb     0.6918   -50.060   -17.863   -16.698 -0.6087  0.0515  0.7917
              Bcc     0.9304   -67.325   -24.023   -22.457 -0.3217  0.8961 -0.3056
 
              Baa    -1.5895   115.014    41.040    38.365  0.1046 -0.0736  0.9918
     8 O(17)  Bbb     0.6639   -48.037   -17.141   -16.023  0.9933  0.0578 -0.1004
              Bcc     0.9256   -66.978   -23.899   -22.341 -0.0500  0.9956  0.0792
 
              Baa    -1.5978   115.619    41.256    38.566 -0.3521  0.2029  0.9137
     9 O(17)  Bbb     0.7378   -53.386   -19.050   -17.808 -0.6075  0.6931 -0.3881
              Bcc     0.8600   -62.233   -22.206   -20.759  0.7120  0.6917  0.1208
 
              Baa    -1.6298   117.932    42.081    39.338 -0.4295  0.8628  0.2667
    10 O(17)  Bbb     0.7670   -55.500   -19.804   -18.513  0.1279 -0.2342  0.9637
              Bcc     0.8628   -62.432   -22.277   -20.825  0.8940  0.4480 -0.0098
 
              Baa    -0.8855   -36.305   -12.954   -12.110  0.8656 -0.2419 -0.4384
    11 S(33)  Bbb     0.4039    16.560     5.909     5.524  0.0070  0.8813 -0.4725
              Bcc     0.4816    19.745     7.046     6.586  0.5007  0.4059  0.7645
 
              Baa    -0.6805   -27.902    -9.956    -9.307  0.6747 -0.2586  0.6913
    12 S(33)  Bbb     0.2844    11.660     4.161     3.889 -0.3791  0.6822  0.6252
              Bcc     0.3961    16.242     5.795     5.418  0.6333  0.6839 -0.3622
 
              Baa    -0.2898  -154.603   -55.166   -51.570 -0.2098  0.1282  0.9693
    13 H(1)   Bbb     0.1374    73.310    26.159    24.453 -0.5213  0.8241 -0.2218
              Bcc     0.1524    81.294    29.008    27.117  0.8272  0.5518  0.1061
 
              Baa    -0.2930  -156.320   -55.779   -52.143  0.6705  0.6890 -0.2750
    14 H(1)   Bbb     0.1403    74.847    26.707    24.966 -0.6575  0.7236  0.2100
              Bcc     0.1527    81.473    29.071    27.176  0.3437  0.0400  0.9382
 
              Baa    -0.2945  -157.112   -56.061   -52.407  0.8357 -0.1446  0.5298
    15 H(1)   Bbb     0.1410    75.249    26.851    25.100  0.0154  0.9705  0.2406
              Bcc     0.1534    81.863    29.211    27.306 -0.5489 -0.1929  0.8133
 
              Baa    -0.2936  -156.640   -55.893   -52.250  0.0475  0.7997  0.5984
    16 H(1)   Bbb     0.1318    70.332    25.096    23.460  0.9900  0.0421 -0.1350
              Bcc     0.1618    86.308    30.797    28.789  0.1331 -0.5989  0.7897
 
              Baa    -0.2852  -152.161   -54.295   -50.755  0.4306  0.7524 -0.4985
    17 H(1)   Bbb     0.1301    69.411    24.767    23.153  0.8099 -0.5659 -0.1545
              Bcc     0.1551    82.750    29.527    27.603  0.3983  0.3372  0.8530
 
              Baa    -0.2916  -155.601   -55.522   -51.903  0.5710 -0.2366  0.7861
    18 H(1)   Bbb     0.1348    71.902    25.657    23.984  0.7454 -0.2519 -0.6172
              Bcc     0.1569    83.698    29.866    27.919  0.3441  0.9384  0.0325
 
              Baa    -0.2931  -156.408   -55.810   -52.172  0.7991 -0.3830 -0.4634
    19 H(1)   Bbb     0.1344    71.722    25.592    23.924  0.2078  0.8993 -0.3849
              Bcc     0.1587    84.686    30.218    28.248  0.5641  0.2113  0.7982
 
              Baa    -0.2951  -157.426   -56.174   -52.512  0.0851 -0.1000  0.9913
    20 H(1)   Bbb     0.1359    72.501    25.870    24.184 -0.1133  0.9875  0.1093
              Bcc     0.1592    84.926    30.304    28.328  0.9899  0.1216 -0.0727
 
              Baa    -0.2814  -150.124   -53.568   -50.076  0.8398  0.4261  0.3364
    21 H(1)   Bbb     0.1286    68.612    24.482    22.886 -0.3055  0.8831 -0.3560
              Bcc     0.1528    81.512    29.085    27.189 -0.4487  0.1962  0.8719
 
              Baa    -0.2694  -143.718   -51.282   -47.939 -0.1644  0.1413  0.9762
    22 H(1)   Bbb     0.1309    69.863    24.929    23.304  0.9687  0.2096  0.1328
              Bcc     0.1384    73.855    26.353    24.635 -0.1859  0.9675 -0.1713
 
              Baa    -0.3741  -199.623   -71.231   -66.587 -0.0051  0.7656  0.6433
    23 H(1)   Bbb     0.1500    80.032    28.557    26.696  0.9430 -0.2104  0.2579
              Bcc     0.2241   119.591    42.673    39.891 -0.3328 -0.6080  0.7209
 
              Baa    -0.3850  -205.425   -73.301   -68.522  0.1664  0.5706  0.8042
    24 H(1)   Bbb     0.1488    79.394    28.330    26.483  0.9458 -0.3229  0.0334
              Bcc     0.2362   126.031    44.971    42.039  0.2787  0.7551 -0.5935
 

 ---------------------------------------------------------------------------------

 No NMR shielding tensors so no spin-rotation constants.
 Leave Link  601 at Mon Feb 26 23:18:29 2018, MaxMem=   33554432 cpu:       1.3
 Merz-Kollman atomic radii used.
 Read replacement radii for each type of atom:
 Atom Element Radius
    1     6    1.50
    2     6    1.50
    3     6    1.50
    4     6    1.50
    5     7    1.50
    6     7    1.50
    7     8    1.40
    8     8    1.40
    9     8    1.40
   10     8    1.40
   11    16    1.75
   12    16    1.75
   13     1    1.20
   14     1    1.20
   15     1    1.20
   16     1    1.20
   17     1    1.20
   18     1    1.20
   19     1    1.20
   20     1    1.20
   21     1    1.20
   22     1    1.20
   23     1    1.20
   24     1    1.20
 Generate VDW surfaces: Layer= 4 Dens= 1 Start= 1.400 Inc= 0.200

 **********************************************************************

            Electrostatic Properties Using The SCF Density

 **********************************************************************

       Atomic Center    1 is at  -0.805753  2.238723  0.066937
       Atomic Center    2 is at  -4.039067  0.123690 -0.409141
       Atomic Center    3 is at   2.444314 -1.697480  0.248051
       Atomic Center    4 is at  -0.227895  0.852503 -0.190970
       Atomic Center    5 is at  -2.695101 -0.199359 -0.914067
       Atomic Center    6 is at   0.960371  0.587827  0.577188
       Atomic Center    7 is at   3.470507  0.729130  0.601984
       Atomic Center    8 is at   2.254534  0.199356 -1.590110
       Atomic Center    9 is at  -1.993379 -0.214081  1.569680
       Atomic Center   10 is at  -0.843113 -1.762674 -0.123114
       Atomic Center   11 is at   2.401557  0.057164 -0.139139
       Atomic Center   12 is at  -1.465307 -0.474206  0.224378
       Atomic Center   13 is at  -1.042715  2.370497  1.127585
       Atomic Center   14 is at  -0.071883  2.992623 -0.234758
       Atomic Center   15 is at  -1.717732  2.390232 -0.516222
       Atomic Center   16 is at  -3.978752  0.990600  0.250121
       Atomic Center   17 is at  -4.508924 -0.698689  0.142590
       Atomic Center   18 is at  -4.659371  0.383984 -1.271426
       Atomic Center   19 is at   3.317454 -2.114262 -0.259441
       Atomic Center   20 is at   2.538117 -1.808213  1.329579
       Atomic Center   21 is at   1.517851 -2.149924 -0.108601
       Atomic Center   22 is at  -0.014248  0.695988 -1.251579
       Atomic Center   23 is at  -2.687066 -0.983208 -1.563336
       Atomic Center   24 is at   1.132386  1.165314  1.393023
      ESP Fit Center   25 is at  -1.550423  4.202257  0.066937
      ESP Fit Center   26 is at  -0.805753  2.238723 -2.033063
      ESP Fit Center   27 is at  -4.039067  0.123690  1.690859
      ESP Fit Center   28 is at  -5.784052  0.636064  0.640859
      ESP Fit Center   29 is at  -5.610939  1.516247 -0.409141
      ESP Fit Center   30 is at  -6.078044 -0.378873 -0.409141
      ESP Fit Center   31 is at  -3.283571  1.777995 -1.459141
      ESP Fit Center   32 is at  -5.230031 -1.250757 -1.459141
      ESP Fit Center   33 is at  -4.297888 -1.676452 -1.459141
      ESP Fit Center   34 is at   4.262967 -1.697480  1.298051
      ESP Fit Center   35 is at   1.253349 -3.071927  1.298051
      ESP Fit Center   36 is at   2.185493 -3.497623  1.298051
      ESP Fit Center   37 is at   3.974263 -2.680719  1.298051
      ESP Fit Center   38 is at   2.697441 -3.782169  0.248051
      ESP Fit Center   39 is at  -1.939605  1.454946 -1.964067
      ESP Fit Center   40 is at  -2.953922  1.600783 -1.964067
      ESP Fit Center   41 is at  -1.645101 -0.199359 -2.732721
      ESP Fit Center   42 is at  -2.170101  0.709968 -2.732721
      ESP Fit Center   43 is at  -3.220101  0.709968 -2.732721
      ESP Fit Center   44 is at  -3.745101 -0.199359 -2.732721
      ESP Fit Center   45 is at  -0.089629  0.587827  2.395842
      ESP Fit Center   46 is at   0.435371 -0.321499  2.395842
      ESP Fit Center   47 is at   1.485371 -0.321499  2.395842
      ESP Fit Center   48 is at   0.701550 -1.212315  1.627188
      ESP Fit Center   49 is at   3.470507  0.729130  2.561984
      ESP Fit Center   50 is at   4.450507  0.729130  2.299394
      ESP Fit Center   51 is at   3.960507  1.577835  2.299394
      ESP Fit Center   52 is at   2.980507  1.577835  2.299394
      ESP Fit Center   53 is at   2.490507  0.729130  2.299394
      ESP Fit Center   54 is at   2.980507 -0.119575  2.299394
      ESP Fit Center   55 is at   3.960507 -0.119575  2.299394
      ESP Fit Center   56 is at   5.167917  0.729130  1.581984
      ESP Fit Center   57 is at   4.843741  1.726843  1.581984
      ESP Fit Center   58 is at   3.995036  2.343463  1.581984
      ESP Fit Center   59 is at   2.945979  2.343463  1.581984
      ESP Fit Center   60 is at   3.995036 -0.885202  1.581984
      ESP Fit Center   61 is at   4.843741 -0.268582  1.581984
      ESP Fit Center   62 is at   5.430507  0.729130  0.601984
      ESP Fit Center   63 is at   5.167917  1.709130  0.601984
      ESP Fit Center   64 is at   4.450507  2.426540  0.601984
      ESP Fit Center   65 is at   3.470507  2.689130  0.601984
      ESP Fit Center   66 is at   2.490507  2.426540  0.601984
      ESP Fit Center   67 is at   5.167917 -0.250870  0.601984
      ESP Fit Center   68 is at   5.167917  0.729130 -0.378016
      ESP Fit Center   69 is at   4.843741  1.726843 -0.378016
      ESP Fit Center   70 is at   3.995036  2.343463 -0.378016
      ESP Fit Center   71 is at   4.843741 -0.268582 -0.378016
      ESP Fit Center   72 is at   3.234534  1.896766 -1.590110
      ESP Fit Center   73 is at   2.254534  2.159356 -1.590110
      ESP Fit Center   74 is at   1.274534  1.896766 -1.590110
      ESP Fit Center   75 is at   3.951944  0.199356 -2.570110
      ESP Fit Center   76 is at   3.627768  1.197068 -2.570110
      ESP Fit Center   77 is at   2.779063  1.813688 -2.570110
      ESP Fit Center   78 is at   1.730006  1.813688 -2.570110
      ESP Fit Center   79 is at   0.881301 -0.798357 -2.570110
      ESP Fit Center   80 is at   1.730006 -1.414977 -2.570110
      ESP Fit Center   81 is at   2.779063 -1.414977 -2.570110
      ESP Fit Center   82 is at   3.627768 -0.798357 -2.570110
      ESP Fit Center   83 is at   3.234534  0.199356 -3.287520
      ESP Fit Center   84 is at   2.744534  1.048061 -3.287520
      ESP Fit Center   85 is at   1.764534  1.048061 -3.287520
      ESP Fit Center   86 is at   1.274534  0.199356 -3.287520
      ESP Fit Center   87 is at   1.764534 -0.649349 -3.287520
      ESP Fit Center   88 is at   2.744534 -0.649349 -3.287520
      ESP Fit Center   89 is at   2.254534  0.199356 -3.550110
      ESP Fit Center   90 is at  -1.993379 -0.214081  3.529680
      ESP Fit Center   91 is at  -1.013379 -0.214081  3.267090
      ESP Fit Center   92 is at  -1.503379  0.634623  3.267090
      ESP Fit Center   93 is at  -2.483379  0.634623  3.267090
      ESP Fit Center   94 is at  -2.973379 -0.214081  3.267090
      ESP Fit Center   95 is at  -2.483379 -1.062786  3.267090
      ESP Fit Center   96 is at  -1.503379 -1.062786  3.267090
      ESP Fit Center   97 is at  -0.295970 -0.214081  2.549680
      ESP Fit Center   98 is at  -0.620146  0.783631  2.549680
      ESP Fit Center   99 is at  -1.468851  1.400251  2.549680
      ESP Fit Center  100 is at  -2.517908  1.400251  2.549680
      ESP Fit Center  101 is at  -3.366613  0.783631  2.549680
      ESP Fit Center  102 is at  -3.690789 -0.214081  2.549680
      ESP Fit Center  103 is at  -3.366613 -1.211794  2.549680
      ESP Fit Center  104 is at  -2.517908 -1.828414  2.549680
      ESP Fit Center  105 is at  -1.468851 -1.828414  2.549680
      ESP Fit Center  106 is at  -0.620146 -1.211794  2.549680
      ESP Fit Center  107 is at  -2.973379  1.483328  1.569680
      ESP Fit Center  108 is at  -3.690789 -1.194081  1.569680
      ESP Fit Center  109 is at  -2.973379 -1.911491  1.569680
      ESP Fit Center  110 is at   0.136887 -1.762674  1.574295
      ESP Fit Center  111 is at  -1.333113 -2.611379  1.574295
      ESP Fit Center  112 is at  -0.353113 -2.611379  1.574295
      ESP Fit Center  113 is at  -2.216346 -2.760386  0.856886
      ESP Fit Center  114 is at  -1.367642 -3.377006  0.856886
      ESP Fit Center  115 is at  -0.318585 -3.377006  0.856886
      ESP Fit Center  116 is at  -2.540523 -2.742674 -0.123114
      ESP Fit Center  117 is at  -1.823113 -3.460084 -0.123114
      ESP Fit Center  118 is at  -0.843113 -3.722674 -0.123114
      ESP Fit Center  119 is at   0.136887 -3.460084 -0.123114
      ESP Fit Center  120 is at  -2.216346 -2.760386 -1.103114
      ESP Fit Center  121 is at  -1.367642 -3.377006 -1.103114
      ESP Fit Center  122 is at  -0.318585 -3.377006 -1.103114
      ESP Fit Center  123 is at   0.136887 -1.762674 -1.820524
      ESP Fit Center  124 is at  -1.333113 -2.611379 -1.820524
      ESP Fit Center  125 is at  -0.353113 -2.611379 -1.820524
      ESP Fit Center  126 is at  -0.843113 -1.762674 -2.083114
      ESP Fit Center  127 is at   2.401557  0.057164  2.310861
      ESP Fit Center  128 is at   4.553587 -0.979199  0.406038
      ESP Fit Center  129 is at   4.790131  0.057164 -0.684315
      ESP Fit Center  130 is at   2.933065  2.385851 -0.684315
      ESP Fit Center  131 is at   1.870050  2.385851 -0.684315
      ESP Fit Center  132 is at   4.553587 -0.979199 -0.684315
      ESP Fit Center  133 is at   4.317044  0.057164 -1.666689
      ESP Fit Center  134 is at   4.012967  1.092754 -1.666689
      ESP Fit Center  135 is at   4.012967 -0.978427 -1.666689
      ESP Fit Center  136 is at  -1.737909 -2.370196  1.751928
      ESP Fit Center  137 is at   0.146103 -1.509797  1.751928
      ESP Fit Center  138 is at  -2.954558 -2.341668  0.769554
      ESP Fit Center  139 is at  -2.954558 -2.341668 -0.320798
      ESP Fit Center  140 is at  -1.042715  2.370497  2.807585
      ESP Fit Center  141 is at  -0.055236  2.370497  2.486733
      ESP Fit Center  142 is at  -0.737567  3.309646  2.486733
      ESP Fit Center  143 is at  -1.841603  2.950923  2.486733
      ESP Fit Center  144 is at  -1.841603  1.790071  2.486733
      ESP Fit Center  145 is at  -0.737567  1.431349  2.486733
      ESP Fit Center  146 is at   0.181251  3.397527  1.646733
      ESP Fit Center  147 is at  -0.765264  3.943998  1.646733
      ESP Fit Center  148 is at  -1.841603  3.754211  1.646733
      ESP Fit Center  149 is at  -2.544132  2.916968  1.646733
      ESP Fit Center  150 is at  -2.544132  1.824026  1.646733
      ESP Fit Center  151 is at   0.915597  2.992623  1.124391
      ESP Fit Center  152 is at   0.233265  3.931772  1.124391
      ESP Fit Center  153 is at   1.525892  2.992623  0.284391
      ESP Fit Center  154 is at   1.152084  4.019653  0.284391
      ESP Fit Center  155 is at   0.205568  4.566125  0.284391
      ESP Fit Center  156 is at  -0.870770  4.376337  0.284391
      ESP Fit Center  157 is at   1.525892  2.992623 -0.753906
      ESP Fit Center  158 is at   1.152084  4.019653 -0.753906
      ESP Fit Center  159 is at   0.205568  4.566125 -0.753906
      ESP Fit Center  160 is at  -0.870770  4.376337 -0.753906
      ESP Fit Center  161 is at   0.915597  2.992623 -1.593906
      ESP Fit Center  162 is at   0.233265  3.931772 -1.593906
      ESP Fit Center  163 is at  -0.870770  3.573049 -1.593906
      ESP Fit Center  164 is at  -0.071883  2.992623 -1.914758
      ESP Fit Center  165 is at  -2.516619  3.773945  0.002926
      ESP Fit Center  166 is at  -3.219149  2.936703  0.002926
      ESP Fit Center  167 is at  -1.440281  3.963733 -1.035371
      ESP Fit Center  168 is at  -2.516619  3.773945 -1.035371
      ESP Fit Center  169 is at  -3.219149  2.936703 -1.035371
      ESP Fit Center  170 is at  -1.412584  3.329380 -1.875371
      ESP Fit Center  171 is at  -2.516619  2.970657 -1.875371
      ESP Fit Center  172 is at  -2.516619  1.809806 -1.875371
      ESP Fit Center  173 is at  -1.412584  1.451083 -1.875371
      ESP Fit Center  174 is at  -1.717732  2.390232 -2.196222
      ESP Fit Center  175 is at  -3.978752  0.990600  1.930121
      ESP Fit Center  176 is at  -3.673604  1.929748  1.609270
      ESP Fit Center  177 is at  -4.777640  1.571025  1.609270
      ESP Fit Center  178 is at  -4.777640  0.410174  1.609270
      ESP Fit Center  179 is at  -3.701301  2.564101  0.769270
      ESP Fit Center  180 is at  -4.777640  2.374313  0.769270
      ESP Fit Center  181 is at  -5.480169  1.537071  0.769270
      ESP Fit Center  182 is at  -3.701301  2.564101 -0.269028
      ESP Fit Center  183 is at  -4.777640  2.374313 -0.269028
      ESP Fit Center  184 is at  -4.508924 -0.698689  1.822590
      ESP Fit Center  185 is at  -5.307811 -0.118263  1.501739
      ESP Fit Center  186 is at  -5.307811 -1.279115  1.501739
      ESP Fit Center  187 is at  -4.203776 -1.637838  1.501739
      ESP Fit Center  188 is at  -6.010341 -0.152218  0.661739
      ESP Fit Center  189 is at  -6.010341 -1.245160  0.661739
      ESP Fit Center  190 is at  -5.307811 -2.082403  0.661739
      ESP Fit Center  191 is at  -4.231473 -2.272190  0.661739
      ESP Fit Center  192 is at  -6.010341 -1.245160 -0.376558
      ESP Fit Center  193 is at  -5.307811 -2.082403 -0.376558
      ESP Fit Center  194 is at  -4.231473 -2.272190 -0.376558
      ESP Fit Center  195 is at  -5.458259  1.767698 -0.752277
      ESP Fit Center  196 is at  -6.160789  0.930455 -0.752277
      ESP Fit Center  197 is at  -6.160789 -0.162487 -0.752277
      ESP Fit Center  198 is at  -4.381921  1.957485 -1.790574
      ESP Fit Center  199 is at  -5.458259  1.767698 -1.790574
      ESP Fit Center  200 is at  -6.160789  0.930455 -1.790574
      ESP Fit Center  201 is at  -6.160789 -0.162487 -1.790574
      ESP Fit Center  202 is at  -5.458259 -0.999730 -1.790574
      ESP Fit Center  203 is at  -4.354224  1.323133 -2.630574
      ESP Fit Center  204 is at  -5.458259  0.964410 -2.630574
      ESP Fit Center  205 is at  -5.458259 -0.196442 -2.630574
      ESP Fit Center  206 is at  -4.354224 -0.555164 -2.630574
      ESP Fit Center  207 is at  -4.659371  0.383984 -2.951426
      ESP Fit Center  208 is at   4.915229 -2.114262  0.259708
      ESP Fit Center  209 is at   4.541421 -1.087232  0.259708
      ESP Fit Center  210 is at   3.594905 -3.687763  0.259708
      ESP Fit Center  211 is at   4.541421 -3.141292  0.259708
      ESP Fit Center  212 is at   4.915229 -2.114262 -0.778589
      ESP Fit Center  213 is at   4.541421 -1.087232 -0.778589
      ESP Fit Center  214 is at   3.594905 -3.687763 -0.778589
      ESP Fit Center  215 is at   4.541421 -3.141292 -0.778589
      ESP Fit Center  216 is at   4.304933 -2.114262 -1.618589
      ESP Fit Center  217 is at   2.518567 -2.694687 -1.618589
      ESP Fit Center  218 is at   3.622602 -3.053410 -1.618589
      ESP Fit Center  219 is at   3.317454 -2.114262 -1.939441
      ESP Fit Center  220 is at   2.538117 -1.808213  3.009579
      ESP Fit Center  221 is at   3.525596 -1.808213  2.688728
      ESP Fit Center  222 is at   2.843265 -0.869064  2.688728
      ESP Fit Center  223 is at   1.739229 -1.227787  2.688728
      ESP Fit Center  224 is at   1.739229 -2.388639  2.688728
      ESP Fit Center  225 is at   2.843265 -2.747362  2.688728
      ESP Fit Center  226 is at   4.135892 -1.808213  1.848728
      ESP Fit Center  227 is at   3.762083 -0.781183  1.848728
      ESP Fit Center  228 is at   1.036699 -1.261742  1.848728
      ESP Fit Center  229 is at   1.036699 -2.354684  1.848728
      ESP Fit Center  230 is at   1.739229 -3.191927  1.848728
      ESP Fit Center  231 is at   2.815568 -3.381714  1.848728
      ESP Fit Center  232 is at   3.762083 -2.835243  1.848728
      ESP Fit Center  233 is at   0.718963 -2.730350  1.250547
      ESP Fit Center  234 is at   0.718963 -3.533638  0.410547
      ESP Fit Center  235 is at   1.795302 -3.723426  0.410547
      ESP Fit Center  236 is at   0.718963 -3.533638 -0.627750
      ESP Fit Center  237 is at   1.795302 -3.723426 -0.627750
      ESP Fit Center  238 is at   0.718963 -1.569499 -1.467750
      ESP Fit Center  239 is at   0.718963 -2.730350 -1.467750
      ESP Fit Center  240 is at   1.822999 -3.089073 -1.467750
      ESP Fit Center  241 is at   1.517851 -2.149924 -1.788601
      ESP Fit Center  242 is at   0.263202  2.269489 -1.770728
      ESP Fit Center  243 is at   0.263202 -0.877513 -1.770728
      ESP Fit Center  244 is at   0.290900  1.635137 -2.610728
      ESP Fit Center  245 is at  -0.813136  1.276414 -2.610728
      ESP Fit Center  246 is at  -0.813136  0.115563 -2.610728
      ESP Fit Center  247 is at   0.290900 -0.243160 -2.610728
      ESP Fit Center  248 is at  -0.014248  0.695988 -2.931579
      ESP Fit Center  249 is at  -3.485954 -2.366922 -1.044188
      ESP Fit Center  250 is at  -2.409616 -2.556710 -1.044188
      ESP Fit Center  251 is at  -4.188484 -1.529680 -2.082485
      ESP Fit Center  252 is at  -3.485954 -2.366922 -2.082485
      ESP Fit Center  253 is at  -2.409616 -2.556710 -2.082485
      ESP Fit Center  254 is at  -1.463100 -2.010238 -2.082485
      ESP Fit Center  255 is at  -1.699587 -0.983208 -2.922485
      ESP Fit Center  256 is at  -3.485954 -0.402783 -2.922485
      ESP Fit Center  257 is at  -3.485954 -1.563634 -2.922485
      ESP Fit Center  258 is at  -2.381919 -1.922357 -2.922485
      ESP Fit Center  259 is at  -2.687066 -0.983208 -3.243336
      ESP Fit Center  260 is at   1.132386  1.165314  3.073023
      ESP Fit Center  261 is at   2.119865  1.165314  2.752172
      ESP Fit Center  262 is at   1.437534  2.104463  2.752172
      ESP Fit Center  263 is at   0.333498  1.745740  2.752172
      ESP Fit Center  264 is at   0.333498  0.584888  2.752172
      ESP Fit Center  265 is at   1.437534  0.226166  2.752172
      ESP Fit Center  266 is at   2.356352  2.192344  1.912172
      ESP Fit Center  267 is at   1.409837  2.738815  1.912172
      ESP Fit Center  268 is at   1.409837  2.738815  0.873875
      ESP Fit Center  269 is at   0.772771  3.253179  1.563313
      ESP Fit Center  270 is at  -0.026270  3.945552  1.563313
      ESP Fit Center  271 is at  -1.326413  4.519885  0.600987
      ESP Fit Center  272 is at  -2.264611  4.068073  0.600987
      ESP Fit Center  273 is at  -1.326413  4.519885 -0.467113
      ESP Fit Center  274 is at  -0.805753  2.238723 -2.333063
      ESP Fit Center  275 is at  -5.839455  0.652332  1.087235
      ESP Fit Center  276 is at  -6.147178  1.138903  0.124910
      ESP Fit Center  277 is at  -6.378894  0.123690  0.124910
      ESP Fit Center  278 is at  -4.559727  2.404852 -0.943191
      ESP Fit Center  279 is at  -6.147178 -0.891523 -0.943191
      ESP Fit Center  280 is at   0.643926 -2.226122  1.744427
      ESP Fit Center  281 is at   1.923654 -3.978643  0.782102
      ESP Fit Center  282 is at   2.964974 -3.978643  0.782102
      ESP Fit Center  283 is at   2.177275 -3.554777 -1.248324
      ESP Fit Center  284 is at  -1.915618  1.507470 -2.410443
      ESP Fit Center  285 is at  -2.962140  1.657937 -2.410443
      ESP Fit Center  286 is at  -1.653780 -0.199359 -3.076392
      ESP Fit Center  287 is at  -2.174441  0.702451 -3.076392
      ESP Fit Center  288 is at  -3.215762  0.702451 -3.076392
      ESP Fit Center  289 is at  -3.736422 -0.199359 -3.076392
      ESP Fit Center  290 is at   0.439711 -0.313983  2.739514
      ESP Fit Center  291 is at   1.481032 -0.313983  2.739514
      ESP Fit Center  292 is at   0.693332 -1.269469  2.073564
      ESP Fit Center  293 is at   3.470507  0.729130  2.841984
      ESP Fit Center  294 is at   4.442407  0.729130  2.620155
      ESP Fit Center  295 is at   3.956457  1.570820  2.620155
      ESP Fit Center  296 is at   2.984558  1.570820  2.620155
      ESP Fit Center  297 is at   2.984558 -0.112559  2.620155
      ESP Fit Center  298 is at   3.956457 -0.112559  2.620155
      ESP Fit Center  299 is at   5.221810  0.729130  1.998602
      ESP Fit Center  300 is at   4.887341  1.758520  1.998602
      ESP Fit Center  301 is at   4.011690  2.394718  1.998602
      ESP Fit Center  302 is at   2.929325  2.394718  1.998602
      ESP Fit Center  303 is at   4.887341 -0.300259  1.998602
      ESP Fit Center  304 is at   5.654346  0.729130  1.100431
      ESP Fit Center  305 is at   5.404200  1.744011  1.100431
      ESP Fit Center  306 is at   4.711069  2.526394  1.100431
      ESP Fit Center  307 is at   3.733740  2.897046  1.100431
      ESP Fit Center  308 is at   2.696108  2.771055  1.100431
      ESP Fit Center  309 is at   4.711069 -1.068134  1.100431
      ESP Fit Center  310 is at   5.404200 -0.285750  1.100431
      ESP Fit Center  311 is at   5.654346  0.729130  0.103537
      ESP Fit Center  312 is at   5.404200  1.744011  0.103537
      ESP Fit Center  313 is at   4.711069  2.526394  0.103537
      ESP Fit Center  314 is at   3.733740  2.897046  0.103537
      ESP Fit Center  315 is at   5.404200 -0.285750  0.103537
      ESP Fit Center  316 is at   5.221810  0.729130 -0.794633
      ESP Fit Center  317 is at   4.887341  1.758520 -0.794633
      ESP Fit Center  318 is at   4.011690  2.394718 -0.794633
      ESP Fit Center  319 is at   4.438373  0.199356 -2.088557
      ESP Fit Center  320 is at   4.188227  1.214236 -2.088557
      ESP Fit Center  321 is at   3.495096  1.996620 -2.088557
      ESP Fit Center  322 is at   2.517767  2.367272 -2.088557
      ESP Fit Center  323 is at   1.480135  2.241280 -2.088557
      ESP Fit Center  324 is at   0.619908 -1.248797 -2.088557
      ESP Fit Center  325 is at   1.480135 -1.842569 -2.088557
      ESP Fit Center  326 is at   4.005837  0.199356 -2.986727
      ESP Fit Center  327 is at   3.671368  1.228746 -2.986727
      ESP Fit Center  328 is at   2.795717  1.864944 -2.986727
      ESP Fit Center  329 is at   1.713352  1.864944 -2.986727
      ESP Fit Center  330 is at   0.837701  1.228746 -2.986727
      ESP Fit Center  331 is at   0.837701 -0.830034 -2.986727
      ESP Fit Center  332 is at   1.713352 -1.466232 -2.986727
      ESP Fit Center  333 is at   2.795717 -1.466232 -2.986727
      ESP Fit Center  334 is at   3.671368 -0.830034 -2.986727
      ESP Fit Center  335 is at   3.226434  0.199356 -3.608280
      ESP Fit Center  336 is at   2.740484  1.041046 -3.608280
      ESP Fit Center  337 is at   1.768585  1.041046 -3.608280
      ESP Fit Center  338 is at   1.282635  0.199356 -3.608280
      ESP Fit Center  339 is at   1.768585 -0.642334 -3.608280
      ESP Fit Center  340 is at   2.740484 -0.642334 -3.608280
      ESP Fit Center  341 is at   2.254534  0.199356 -3.830110
      ESP Fit Center  342 is at  -1.993379 -0.214081  3.809680
      ESP Fit Center  343 is at  -1.021480 -0.214081  3.587850
      ESP Fit Center  344 is at  -1.507430  0.627608  3.587850
      ESP Fit Center  345 is at  -2.479329  0.627608  3.587850
      ESP Fit Center  346 is at  -2.965279 -0.214081  3.587850
      ESP Fit Center  347 is at  -2.479329 -1.055771  3.587850
      ESP Fit Center  348 is at  -1.507430 -1.055771  3.587850
      ESP Fit Center  349 is at  -0.242077 -0.214081  2.966297
      ESP Fit Center  350 is at  -0.576546  0.815308  2.966297
      ESP Fit Center  351 is at  -1.452197  1.451506  2.966297
      ESP Fit Center  352 is at  -2.534562  1.451506  2.966297
      ESP Fit Center  353 is at  -3.410213  0.815308  2.966297
      ESP Fit Center  354 is at  -3.744682 -0.214081  2.966297
      ESP Fit Center  355 is at  -3.410213 -1.243471  2.966297
      ESP Fit Center  356 is at  -2.534562 -1.879669  2.966297
      ESP Fit Center  357 is at  -1.452197 -1.879669  2.966297
      ESP Fit Center  358 is at  -0.576546 -1.243471  2.966297
      ESP Fit Center  359 is at  -2.767779  1.827843  2.068127
      ESP Fit Center  360 is at  -4.113760  0.308545  2.068127
      ESP Fit Center  361 is at  -4.113760 -0.736708  2.068127
      ESP Fit Center  362 is at  -3.628006 -1.662234  2.068127
      ESP Fit Center  363 is at  -2.767779 -2.256006  2.068127
      ESP Fit Center  364 is at  -0.357163 -2.604363  1.895056
      ESP Fit Center  365 is at  -1.384295 -3.428261  1.273503
      ESP Fit Center  366 is at  -0.301931 -3.428261  1.273503
      ESP Fit Center  367 is at  -2.477740 -3.210827  0.375332
      ESP Fit Center  368 is at  -1.617513 -3.804598  0.375332
      ESP Fit Center  369 is at  -0.579880 -3.930590  0.375332
      ESP Fit Center  370 is at  -2.477740 -3.210827 -0.621561
      ESP Fit Center  371 is at  -1.617513 -3.804598 -0.621561
      ESP Fit Center  372 is at  -0.579880 -3.930590 -0.621561
      ESP Fit Center  373 is at  -1.384295 -3.428261 -1.519732
      ESP Fit Center  374 is at  -0.301931 -3.428261 -1.519732
      ESP Fit Center  375 is at   0.128787 -1.762674 -2.141285
      ESP Fit Center  376 is at  -1.329063 -2.604363 -2.141285
      ESP Fit Center  377 is at  -0.357163 -2.604363 -2.141285
      ESP Fit Center  378 is at  -0.843113 -1.762674 -2.363114
      ESP Fit Center  379 is at   2.401557  0.057164  2.660861
      ESP Fit Center  380 is at   2.659909  2.845219 -0.139139
      ESP Fit Center  381 is at   5.012479 -0.954313 -0.139139
      ESP Fit Center  382 is at   4.988420  0.057164 -1.210652
      ESP Fit Center  383 is at   4.764774  1.109336 -1.210652
      ESP Fit Center  384 is at   4.132506  1.979577 -1.210652
      ESP Fit Center  385 is at   3.200942  2.517416 -1.210652
      ESP Fit Center  386 is at   2.131156  2.629855 -1.210652
      ESP Fit Center  387 is at   4.764774 -0.995008 -1.210652
      ESP Fit Center  388 is at   4.116200 -0.932786 -2.119038
      ESP Fit Center  389 is at  -1.465307 -2.454105  2.204277
      ESP Fit Center  390 is at  -0.475358 -2.188849  2.204277
      ESP Fit Center  391 is at   0.249336 -1.464156  2.204277
      ESP Fit Center  392 is at  -3.558123 -1.994726  1.295892
      ESP Fit Center  393 is at  -2.758738 -2.714495  1.295892
      ESP Fit Center  394 is at  -3.152684 -2.708654  0.224378
      ESP Fit Center  395 is at  -0.929550 -1.402164 -2.362484
      ESP Fit Center  396 is at  -1.042715  2.370497  3.047585
      ESP Fit Center  397 is at  -0.082715  2.370497  2.790354
      ESP Fit Center  398 is at  -0.562715  3.201881  2.790354
      ESP Fit Center  399 is at  -1.522715  3.201881  2.790354
      ESP Fit Center  400 is at  -2.002715  2.370497  2.790354
      ESP Fit Center  401 is at  -0.562715  1.539113  2.790354
      ESP Fit Center  402 is at   0.302493  3.347848  2.087585
      ESP Fit Center  403 is at  -0.528891  3.951884  2.087585
      ESP Fit Center  404 is at  -1.556539  3.951884  2.087585
      ESP Fit Center  405 is at  -2.387923  3.347848  2.087585
      ESP Fit Center  406 is at  -2.705484  2.370497  2.087585
      ESP Fit Center  407 is at  -2.002715  4.033266  1.127585
      ESP Fit Center  408 is at  -2.705484  3.330497  1.127585
      ESP Fit Center  409 is at  -2.962715  2.370497  1.127585
      ESP Fit Center  410 is at   0.408117  3.824008  1.428011
      ESP Fit Center  411 is at   1.590886  2.992623  0.725242
      ESP Fit Center  412 is at   1.273325  3.969974  0.725242
      ESP Fit Center  413 is at   0.441941  4.574011  0.725242
      ESP Fit Center  414 is at  -0.585707  4.574011  0.725242
      ESP Fit Center  415 is at   1.848117  2.992623 -0.234758
      ESP Fit Center  416 is at   1.590886  3.952623 -0.234758
      ESP Fit Center  417 is at   0.888117  4.655392 -0.234758
      ESP Fit Center  418 is at  -0.071883  4.912623 -0.234758
      ESP Fit Center  419 is at  -1.031883  4.655392 -0.234758
      ESP Fit Center  420 is at   1.590886  2.992623 -1.194758
      ESP Fit Center  421 is at   1.273325  3.969974 -1.194758
      ESP Fit Center  422 is at   0.441941  4.574011 -1.194758
      ESP Fit Center  423 is at  -0.585707  4.574011 -1.194758
      ESP Fit Center  424 is at   0.888117  2.992623 -1.897527
      ESP Fit Center  425 is at   0.408117  3.824008 -1.897527
      ESP Fit Center  426 is at  -0.551883  3.824008 -1.897527
      ESP Fit Center  427 is at  -0.071883  2.992623 -2.154758
      ESP Fit Center  428 is at  -3.062940  3.367583  0.443778
      ESP Fit Center  429 is at  -2.677732  4.053000 -0.516222
      ESP Fit Center  430 is at  -3.380500  3.350232 -0.516222
      ESP Fit Center  431 is at  -2.231555  3.971619 -1.476222
      ESP Fit Center  432 is at  -3.062940  3.367583 -1.476222
      ESP Fit Center  433 is at  -3.380500  2.390232 -1.476222
      ESP Fit Center  434 is at  -1.237732  3.221616 -2.178991
      ESP Fit Center  435 is at  -2.197732  3.221616 -2.178991
      ESP Fit Center  436 is at  -2.677732  2.390232 -2.178991
      ESP Fit Center  437 is at  -1.717732  2.390232 -2.436222
      ESP Fit Center  438 is at  -3.978752  0.990600  2.170121
      ESP Fit Center  439 is at  -3.498752  1.821984  1.912890
      ESP Fit Center  440 is at  -4.458752  1.821984  1.912890
      ESP Fit Center  441 is at  -4.938752  0.990600  1.912890
      ESP Fit Center  442 is at  -3.464928  2.571987  1.210121
      ESP Fit Center  443 is at  -4.492576  2.571987  1.210121
      ESP Fit Center  444 is at  -5.323960  1.967951  1.210121
      ESP Fit Center  445 is at  -5.641521  0.990600  1.210121
      ESP Fit Center  446 is at  -3.978752  2.910600  0.250121
      ESP Fit Center  447 is at  -4.938752  2.653369  0.250121
      ESP Fit Center  448 is at  -5.641521  1.950600  0.250121
      ESP Fit Center  449 is at  -4.492576  2.571987 -0.709879
      ESP Fit Center  450 is at  -4.508924 -0.698689  2.062590
      ESP Fit Center  451 is at  -4.988924  0.132695  1.805359
      ESP Fit Center  452 is at  -5.468924 -0.698689  1.805359
      ESP Fit Center  453 is at  -4.988924 -1.530074  1.805359
      ESP Fit Center  454 is at  -4.028924 -1.530074  1.805359
      ESP Fit Center  455 is at  -6.171692 -0.698689  1.102590
      ESP Fit Center  456 is at  -5.854132 -1.676040  1.102590
      ESP Fit Center  457 is at  -5.022747 -2.280076  1.102590
      ESP Fit Center  458 is at  -3.995100 -2.280076  1.102590
      ESP Fit Center  459 is at  -6.428924 -0.698689  0.142590
      ESP Fit Center  460 is at  -6.171692 -1.658689  0.142590
      ESP Fit Center  461 is at  -5.468924 -2.361458  0.142590
      ESP Fit Center  462 is at  -4.508924 -2.618689  0.142590
      ESP Fit Center  463 is at  -3.548924 -2.361458  0.142590
      ESP Fit Center  464 is at  -5.854132 -1.676040 -0.817410
      ESP Fit Center  465 is at  -5.022747 -2.280076 -0.817410
      ESP Fit Center  466 is at  -3.995100 -2.280076 -0.817410
      ESP Fit Center  467 is at  -4.659371  2.303984 -1.271426
      ESP Fit Center  468 is at  -5.619371  2.046753 -1.271426
      ESP Fit Center  469 is at  -6.322140  1.343984 -1.271426
      ESP Fit Center  470 is at  -6.579371  0.383984 -1.271426
      ESP Fit Center  471 is at  -6.322140 -0.576016 -1.271426
      ESP Fit Center  472 is at  -4.145548  1.965371 -2.231426
      ESP Fit Center  473 is at  -5.173195  1.965371 -2.231426
      ESP Fit Center  474 is at  -6.004580  1.361335 -2.231426
      ESP Fit Center  475 is at  -6.322140  0.383984 -2.231426
      ESP Fit Center  476 is at  -6.004580 -0.593367 -2.231426
      ESP Fit Center  477 is at  -5.173195 -1.197403 -2.231426
      ESP Fit Center  478 is at  -4.179371  1.215369 -2.934194
      ESP Fit Center  479 is at  -5.139371  1.215369 -2.934194
      ESP Fit Center  480 is at  -5.619371  0.383984 -2.934194
      ESP Fit Center  481 is at  -5.139371 -0.447400 -2.934194
      ESP Fit Center  482 is at  -4.179371 -0.447400 -2.934194
      ESP Fit Center  483 is at  -4.659371  0.383984 -3.191426
      ESP Fit Center  484 is at   4.980223 -2.114262  0.700559
      ESP Fit Center  485 is at   3.831278 -3.695649  0.700559
      ESP Fit Center  486 is at   4.662662 -3.091613  0.700559
      ESP Fit Center  487 is at   5.237454 -2.114262 -0.259441
      ESP Fit Center  488 is at   4.980223 -1.154262 -0.259441
      ESP Fit Center  489 is at   3.317454 -4.034262 -0.259441
      ESP Fit Center  490 is at   4.277454 -3.777030 -0.259441
      ESP Fit Center  491 is at   4.980223 -3.074262 -0.259441
      ESP Fit Center  492 is at   4.980223 -2.114262 -1.219441
      ESP Fit Center  493 is at   2.803630 -3.695649 -1.219441
      ESP Fit Center  494 is at   3.831278 -3.695649 -1.219441
      ESP Fit Center  495 is at   4.662662 -3.091613 -1.219441
      ESP Fit Center  496 is at   4.277454 -2.114262 -1.922210
      ESP Fit Center  497 is at   2.837454 -2.945646 -1.922210
      ESP Fit Center  498 is at   3.797454 -2.945646 -1.922210
      ESP Fit Center  499 is at   3.317454 -2.114262 -2.179441
      ESP Fit Center  500 is at   2.538117 -1.808213  3.249579
      ESP Fit Center  501 is at   3.498117 -1.808213  2.992348
      ESP Fit Center  502 is at   3.018117 -0.976829  2.992348
      ESP Fit Center  503 is at   2.058117 -0.976829  2.992348
      ESP Fit Center  504 is at   1.578117 -1.808213  2.992348
      ESP Fit Center  505 is at   2.058117 -2.639597  2.992348
      ESP Fit Center  506 is at   3.018117 -2.639597  2.992348
      ESP Fit Center  507 is at   4.200886 -1.808213  2.289579
      ESP Fit Center  508 is at   3.883325 -0.830862  2.289579
      ESP Fit Center  509 is at   0.875348 -1.808213  2.289579
      ESP Fit Center  510 is at   1.192909 -2.785564  2.289579
      ESP Fit Center  511 is at   2.024293 -3.389600  2.289579
      ESP Fit Center  512 is at   3.051941 -3.389600  2.289579
      ESP Fit Center  513 is at   3.883325 -2.785564  2.289579
      ESP Fit Center  514 is at   1.004027 -3.731311  0.851399
      ESP Fit Center  515 is at   0.557851 -3.812693 -0.108601
      ESP Fit Center  516 is at   1.517851 -4.069924 -0.108601
      ESP Fit Center  517 is at   1.004027 -3.731311 -1.068601
      ESP Fit Center  518 is at   2.031675 -3.731311 -1.068601
      ESP Fit Center  519 is at   1.037851 -2.981309 -1.771370
      ESP Fit Center  520 is at   1.997851 -2.981309 -1.771370
      ESP Fit Center  521 is at   1.517851 -2.149924 -2.028601
      ESP Fit Center  522 is at   0.499576  2.277375 -2.211579
      ESP Fit Center  523 is at   0.465752  1.527373 -2.914348
      ESP Fit Center  524 is at  -0.494248  1.527373 -2.914348
      ESP Fit Center  525 is at  -0.974248  0.695988 -2.914348
      ESP Fit Center  526 is at  -0.494248 -0.135396 -2.914348
      ESP Fit Center  527 is at   0.465752 -0.135396 -2.914348
      ESP Fit Center  528 is at  -0.014248  0.695988 -3.171579
[...]
  417 Fit       0.015994
  418 Fit       0.017236
  419 Fit       0.018267
  420 Fit       0.007169
  421 Fit       0.012204
  422 Fit       0.015649
  423 Fit       0.017002
  424 Fit       0.009637
  425 Fit       0.013717
  426 Fit       0.016269
  427 Fit       0.015631
  428 Fit       0.021915
  429 Fit       0.020836
  430 Fit       0.024010
  431 Fit       0.019743
  432 Fit       0.022258
  433 Fit       0.022166
  434 Fit       0.017578
  435 Fit       0.019019
  436 Fit       0.017100
  437 Fit       0.016892
  438 Fit      -0.008374
  439 Fit       0.002578
  440 Fit       0.010036
  441 Fit       0.007627
  442 Fit       0.018728
  443 Fit       0.018440
  444 Fit       0.017404
  445 Fit       0.016854
  446 Fit       0.023663
  447 Fit       0.021224
  448 Fit       0.021064
  449 Fit       0.022596
  450 Fit      -0.007129
  451 Fit       0.005162
  452 Fit       0.008060
  453 Fit       0.004513
  454 Fit      -0.010179
  455 Fit       0.015309
  456 Fit       0.013856
  457 Fit       0.010606
  458 Fit       0.004007
  459 Fit       0.019383
  460 Fit       0.017919
  461 Fit       0.016793
  462 Fit       0.015162
  463 Fit       0.015124
  464 Fit       0.020992
  465 Fit       0.022227
  466 Fit       0.029163
  467 Fit       0.021939
  468 Fit       0.022024
  469 Fit       0.022534
  470 Fit       0.022673
  471 Fit       0.022711
  472 Fit       0.019496
  473 Fit       0.021937
  474 Fit       0.023176
  475 Fit       0.023707
  476 Fit       0.024362
  477 Fit       0.028937
  478 Fit       0.020319
  479 Fit       0.023094
  480 Fit       0.024649
  481 Fit       0.027248
  482 Fit       0.033111
  483 Fit       0.024867
  484 Fit       0.007718
  485 Fit       0.015183
  486 Fit       0.013306
  487 Fit       0.009053
  488 Fit       0.000799
  489 Fit       0.014035
  490 Fit       0.014802
  491 Fit       0.013548
  492 Fit       0.009256
  493 Fit       0.011072
  494 Fit       0.013173
  495 Fit       0.013016
  496 Fit       0.005341
  497 Fit       0.005820
  498 Fit       0.008869
  499 Fit      -0.002107
  500 Fit       0.012830
  501 Fit       0.010839
  502 Fit       0.009251
  503 Fit       0.013328
  504 Fit       0.009406
  505 Fit       0.011415
  506 Fit       0.013432
  507 Fit       0.006564
  508 Fit      -0.006101
  509 Fit      -0.000472
  510 Fit       0.003420
  511 Fit       0.010260
  512 Fit       0.013516
  513 Fit       0.012635
  514 Fit      -0.001455
  515 Fit      -0.008898
  516 Fit       0.005462
  517 Fit      -0.000657
  518 Fit       0.008359
  519 Fit      -0.003262
  520 Fit       0.003781
  521 Fit      -0.007494
  522 Fit       0.010416
  523 Fit       0.000046
  524 Fit       0.014313
  525 Fit       0.015039
  526 Fit       0.012177
  527 Fit      -0.010414
  528 Fit       0.004986
  529 Fit       0.017742
  530 Fit       0.029258
  531 Fit       0.015445
  532 Fit       0.018210
  533 Fit       0.036809
  534 Fit       0.031008
  535 Fit       0.020846
  536 Fit       0.011884
  537 Fit       0.022474
  538 Fit       0.033981
  539 Fit       0.033361
  540 Fit       0.027221
  541 Fit       0.028235
  542 Fit       0.022842
  543 Fit       0.017283
  544 Fit       0.025346
  545 Fit       0.029516
  546 Fit       0.018593
  547 Fit       0.011270
  548 Fit       0.017502
  549 Fit       0.007849
  550 Fit       0.025949
  551 Fit       0.034742
  552 Fit       0.013858
  553 Fit       0.030393
  554 Fit       0.026493
  555 Fit       0.015813
  556 Fit       0.016439
  557 Fit       0.017747
  558 Fit       0.016347
  559 Fit       0.016265
  560 Fit       0.015557
  561 Fit       0.013203
  562 Fit       0.016002
  563 Fit       0.002311
  564 Fit       0.012677
  565 Fit       0.017327
  566 Fit       0.016812
  567 Fit       0.019745
  568 Fit       0.019822
  569 Fit       0.019338
  570 Fit       0.020139
  571 Fit       0.021817
  572 Fit       0.026741
  573 Fit      -0.000491
  574 Fit       0.005808
  575 Fit       0.010241
  576 Fit       0.011779
  577 Fit       0.009455
  578 Fit       0.008183
  579 Fit       0.004737
  580 Fit      -0.004543
  581 Fit       0.008902
  582 Fit       0.009838
  583 Fit       0.014029
  584 Fit       0.009077
  585 Fit       0.013813
  586 Fit       0.024442
  587 Fit       0.018507
  588 Fit      -0.003168
  589 Fit       0.009831
  590 Fit      -0.004400
  591 Fit      -0.013753
  592 Fit      -0.024245
  593 Fit      -0.021989
  594 Fit      -0.005496
  595 Fit      -0.014583
  596 Fit      -0.029302
  597 Fit      -0.030075
  598 Fit      -0.026125
  599 Fit      -0.013375
  600 Fit      -0.022794
  601 Fit      -0.031864
  602 Fit      -0.033674
  603 Fit      -0.032252
  604 Fit      -0.026408
  605 Fit      -0.011820
  606 Fit      -0.010243
  607 Fit      -0.025182
  608 Fit      -0.032558
  609 Fit      -0.035639
  610 Fit      -0.034664
  611 Fit      -0.028798
  612 Fit      -0.023097
  613 Fit      -0.031694
  614 Fit      -0.036211
  615 Fit      -0.033863
  616 Fit      -0.033838
  617 Fit      -0.025109
  618 Fit      -0.011894
  619 Fit      -0.014237
  620 Fit      -0.031951
  621 Fit      -0.034427
  622 Fit      -0.031323
  623 Fit      -0.023411
  624 Fit      -0.012480
  625 Fit      -0.008751
  626 Fit      -0.018582
  627 Fit      -0.021191
  628 Fit      -0.022200
  629 Fit      -0.026303
  630 Fit      -0.031710
  631 Fit      -0.030783
  632 Fit      -0.024382
  633 Fit      -0.020756
  634 Fit      -0.024786
  635 Fit      -0.028444
  636 Fit      -0.028122
  637 Fit      -0.026059
  638 Fit      -0.022294
  639 Fit      -0.018930
  640 Fit      -0.021750
  641 Fit      -0.025534
  642 Fit      -0.028957
  643 Fit      -0.028354
  644 Fit      -0.011838
  645 Fit      -0.001254
  646 Fit      -0.003664
  647 Fit      -0.010989
  648 Fit      -0.016055
  649 Fit      -0.019410
  650 Fit      -0.022890
  651 Fit      -0.026776
  652 Fit      -0.029948
  653 Fit      -0.029208
  654 Fit      -0.022160
  655 Fit      -0.018539
  656 Fit      -0.023885
  657 Fit      -0.026530
  658 Fit      -0.020600
  659 Fit      -0.018742
  660 Fit      -0.023820
  661 Fit      -0.020638
  662 Fit      -0.011786
  663 Fit      -0.019661
  664 Fit      -0.017998
  665 Fit      -0.001153
  666 Fit      -0.014703
  667 Fit      -0.014563
  668 Fit      -0.011924
  669 Fit       0.000003
  670 Fit      -0.011814
  671 Fit       0.003069
  672 Fit       0.007765
  673 Fit      -0.011984
  674 Fit      -0.014272
  675 Fit      -0.005813
  676 Fit      -0.022146
  677 Fit      -0.032209
  678 Fit      -0.034046
  679 Fit      -0.027490
  680 Fit      -0.015505
  681 Fit      -0.007786
  682 Fit      -0.029600
  683 Fit      -0.023097
  684 Fit      -0.011937
  685 Fit      -0.014515
  686 Fit      -0.021117
  687 Fit      -0.009024
  688 Fit      -0.000471
  689 Fit       0.008997
  690 Fit       0.023237
  691 Fit       0.016436
  692 Fit       0.011976
  693 Fit       0.002243
  694 Fit       0.008075
  695 Fit       0.023756
  696 Fit       0.017145
  697 Fit       0.015246
  698 Fit       0.013732
  699 Fit       0.009712
  700 Fit       0.013712
  701 Fit       0.014792
  702 Fit       0.015871
  703 Fit       0.008387
  704 Fit       0.012285
  705 Fit       0.014329
  706 Fit       0.015715
  707 Fit       0.001163
  708 Fit       0.007711
  709 Fit       0.012052
  710 Fit       0.014274
  711 Fit       0.004916
  712 Fit       0.010638
  713 Fit       0.014242
  714 Fit       0.017995
  715 Fit       0.020171
  716 Fit       0.016935
  717 Fit       0.018859
  718 Fit       0.020684
  719 Fit       0.015360
  720 Fit       0.016615
  721 Fit       0.015153
  722 Fit       0.014621
  723 Fit       0.000467
  724 Fit       0.007624
  725 Fit       0.005529
  726 Fit       0.016567
  727 Fit       0.016078
  728 Fit       0.015214
  729 Fit       0.014641
  730 Fit       0.022406
  731 Fit       0.019319
  732 Fit       0.018565
  733 Fit       0.021575
  734 Fit      -0.009738
  735 Fit       0.005846
  736 Fit       0.001902
  737 Fit       0.013751
  738 Fit       0.012301
  739 Fit       0.010300
  740 Fit       0.006202
  741 Fit       0.016301
  742 Fit       0.015048
  743 Fit       0.013640
  744 Fit       0.011485
  745 Fit       0.019051
  746 Fit       0.020864
  747 Fit       0.019893
  748 Fit       0.019846
  749 Fit       0.019973
  750 Fit       0.020069
  751 Fit       0.017152
  752 Fit       0.019220
  753 Fit       0.020051
  754 Fit       0.020585
  755 Fit       0.021015
  756 Fit       0.022585
  757 Fit       0.017940
  758 Fit       0.020228
  759 Fit       0.021598
  760 Fit       0.024329
  761 Fit       0.021979
  762 Fit       0.004233
  763 Fit       0.012170
  764 Fit       0.009977
  765 Fit       0.005102
  766 Fit       0.011333
  767 Fit       0.011492
  768 Fit       0.009765
  769 Fit       0.005073
  770 Fit       0.008792
  771 Fit       0.010026
  772 Fit       0.009087
  773 Fit       0.001103
  774 Fit       0.002749
  775 Fit       0.005388
  776 Fit      -0.006529
  777 Fit       0.009175
  778 Fit       0.007309
  779 Fit       0.005494
  780 Fit       0.009891
  781 Fit       0.005596
  782 Fit       0.007883
  783 Fit       0.009998
  784 Fit       0.003292
  785 Fit      -0.004303
  786 Fit       0.002738
  787 Fit       0.008512
  788 Fit       0.010706
  789 Fit       0.009358
  790 Fit      -0.004992
  791 Fit       0.005466
  792 Fit       0.000431
  793 Fit      -0.005081
  794 Fit      -0.010839
  795 Fit       0.003435
  796 Fit      -0.002878
  797 Fit       0.011110
  798 Fit       0.011987
  799 Fit       0.009176
  800 Fit       0.001904
  801 Fit       0.028490
  802 Fit       0.020181
  803 Fit       0.004764
  804 Fit       0.032942
  805 Fit       0.029052
  806 Fit       0.022463
  807 Fit       0.012803
  808 Fit       0.005911
  809 Fit       0.017531
  810 Fit       0.028817
  811 Fit       0.027354
  812 Fit       0.021312
  813 Fit       0.023231
  814 Fit       0.016701
  815 Fit       0.011235
  816 Fit       0.018804
  817 Fit       0.022870
  818 Fit       0.011777
  819 Fit       0.006059
  820 Fit       0.012643
  821 Fit       0.017090
  822 Fit       0.026652
  823 Fit       0.004127
  824 Fit       0.022308
  825 Fit       0.014439
  826 Fit       0.014076
  827 Fit       0.014244
  828 Fit       0.014089
  829 Fit       0.015245
  830 Fit       0.014443
  831 Fit       0.014004
  832 Fit       0.013346
  833 Fit       0.010457
  834 Fit       0.012703
  835 Fit      -0.000788
  836 Fit       0.009079
  837 Fit       0.014458
  838 Fit       0.013501
  839 Fit       0.016487
  840 Fit       0.016070
  841 Fit       0.015763
  842 Fit       0.018730
  843 Fit       0.018174
  844 Fit       0.017730
  845 Fit       0.017337
  846 Fit       0.018191
  847 Fit       0.019827
  848 Fit       0.021638
  849 Fit      -0.002467
  850 Fit      -0.001101
  851 Fit       0.005590
  852 Fit       0.008630
  853 Fit       0.009061
  854 Fit       0.006169
  855 Fit       0.002504
  856 Fit       0.006894
  857 Fit       0.009365
  858 Fit       0.006930
  859 Fit       0.004446
  860 Fit       0.001659
  861 Fit      -0.007418
  862 Fit       0.009273
  863 Fit       0.010716
  864 Fit       0.012159
  865 Fit       0.009873
  866 Fit       0.013681
  867 Fit       0.020862
  868 Fit       0.016224
  869 Fit      -0.003191
  870 Fit       0.007084
  871 Fit      -0.004248
  872 Fit      -0.009739
  873 Fit      -0.018465
  874 Fit      -0.016442
  875 Fit      -0.003356
  876 Fit      -0.010677
  877 Fit      -0.023212
  878 Fit      -0.023980
  879 Fit      -0.021044
  880 Fit      -0.012574
  881 Fit      -0.007649
  882 Fit      -0.018328
  883 Fit      -0.025829
  884 Fit      -0.027308
  885 Fit      -0.026116
  886 Fit      -0.021586
  887 Fit      -0.011192
  888 Fit      -0.010604
  889 Fit      -0.020838
  890 Fit      -0.027047
  891 Fit      -0.029229
  892 Fit      -0.028951
  893 Fit      -0.026078
  894 Fit      -0.019277
  895 Fit      -0.021388
  896 Fit      -0.027149
  897 Fit      -0.030282
  898 Fit      -0.029913
  899 Fit      -0.025821
  900 Fit      -0.025575
  901 Fit      -0.029867
  902 Fit      -0.029077
  903 Fit      -0.023577
  904 Fit      -0.014666
  905 Fit      -0.003305
  906 Fit      -0.012811
  907 Fit      -0.010444
  908 Fit      -0.026929
  909 Fit      -0.028535
  910 Fit      -0.026564
  911 Fit      -0.021291
  912 Fit      -0.014002
  913 Fit      -0.007055
  914 Fit      -0.011396
  915 Fit      -0.016630
  916 Fit      -0.018388
  917 Fit      -0.019931
  918 Fit      -0.023200
  919 Fit      -0.026105
  920 Fit      -0.025206
  921 Fit      -0.020010
  922 Fit      -0.017114
  923 Fit      -0.020196
  924 Fit      -0.023432
  925 Fit      -0.023022
  926 Fit      -0.020867
  927 Fit      -0.017789
  928 Fit      -0.015119
  929 Fit      -0.017458
  930 Fit      -0.020689
  931 Fit      -0.023398
  932 Fit      -0.022725
  933 Fit      -0.009879
  934 Fit      -0.002809
  935 Fit      -0.003328
  936 Fit      -0.007833
  937 Fit      -0.012064
  938 Fit      -0.014934
  939 Fit      -0.017567
  940 Fit      -0.020407
  941 Fit      -0.023255
  942 Fit      -0.024854
  943 Fit      -0.023133
  944 Fit      -0.017526
  945 Fit      -0.003173
  946 Fit      -0.005780
  947 Fit      -0.008629
  948 Fit      -0.011273
  949 Fit      -0.014876
  950 Fit      -0.019530
  951 Fit      -0.021334
  952 Fit      -0.015192
  953 Fit      -0.018395
  954 Fit      -0.019754
  955 Fit      -0.015533
  956 Fit      -0.011596
  957 Fit      -0.016714
  958 Fit      -0.016234
  959 Fit      -0.008504
  960 Fit      -0.013777
  961 Fit      -0.012087
  962 Fit      -0.001883
  963 Fit      -0.010068
  964 Fit      -0.010267
  965 Fit      -0.009477
  966 Fit       0.003578
  967 Fit      -0.007516
  968 Fit       0.005565
  969 Fit       0.006998
  970 Fit      -0.005497
  971 Fit      -0.010593
  972 Fit      -0.020309
  973 Fit      -0.026835
  974 Fit      -0.016202
  975 Fit      -0.001684
  976 Fit      -0.007491
  977 Fit      -0.021117
  978 Fit      -0.028058
  979 Fit      -0.029556
  980 Fit      -0.025237
  981 Fit      -0.011201
  982 Fit      -0.025149
  983 Fit      -0.019315
  984 Fit      -0.010329
  985 Fit      -0.019745
  986 Fit      -0.022842
  987 Fit      -0.004056
  988 Fit      -0.013770
  989 Fit      -0.003803
  990 Fit       0.006648
  991 Fit       0.017619
  992 Fit       0.013474
  993 Fit       0.009470
  994 Fit       0.000880
  995 Fit       0.004914
  996 Fit       0.020256
  997 Fit       0.014872
  998 Fit       0.012973
  999 Fit       0.011149
 1000 Fit       0.006589
 1001 Fit       0.014013
 1002 Fit       0.013698
 1003 Fit       0.013087
 1004 Fit       0.013518
 1005 Fit       0.006177
 1006 Fit       0.010061
 1007 Fit       0.012274
 1008 Fit       0.013805
 1009 Fit       0.003541
 1010 Fit       0.008550
 1011 Fit       0.011398
 1012 Fit       0.013234
 1013 Fit       0.004500
 1014 Fit       0.009332
 1015 Fit       0.012101
 1016 Fit       0.002393
 1017 Fit       0.008283
 1018 Fit       0.017267
 1019 Fit       0.020472
 1020 Fit       0.015758
 1021 Fit       0.017242
 1022 Fit       0.019797
 1023 Fit       0.014939
 1024 Fit       0.016515
 1025 Fit       0.017966
 1026 Fit       0.014506
 1027 Fit       0.013548
 1028 Fit       0.012890
 1029 Fit       0.004327
 1030 Fit       0.002460
 1031 Fit       0.012241
 1032 Fit       0.011794
 1033 Fit       0.011106
 1034 Fit       0.016686
 1035 Fit       0.015584
 1036 Fit       0.015525
 1037 Fit       0.018944
 1038 Fit       0.017833
 1039 Fit       0.002838
 1040 Fit      -0.001193
 1041 Fit       0.010293
 1042 Fit       0.009007
 1043 Fit       0.006744
 1044 Fit       0.002047
 1045 Fit       0.013810
 1046 Fit       0.012396
 1047 Fit       0.010852
 1048 Fit       0.008365
 1049 Fit       0.003923
 1050 Fit       0.015399
 1051 Fit       0.014471
 1052 Fit       0.013745
 1053 Fit       0.012964
 1054 Fit       0.017884
 1055 Fit       0.017980
 1056 Fit       0.017836
 1057 Fit       0.017943
 1058 Fit       0.018083
 1059 Fit       0.018451
 1060 Fit       0.015640
 1061 Fit       0.017328
 1062 Fit       0.017986
 1063 Fit       0.018467
 1064 Fit       0.019048
 1065 Fit       0.020746
 1066 Fit       0.016619
 1067 Fit       0.018116
 1068 Fit       0.019305
 1069 Fit       0.021737
 1070 Fit       0.019674
 1071 Fit       0.007879
 1072 Fit       0.001852
 1073 Fit       0.009640
 1074 Fit       0.009105
 1075 Fit       0.006905
 1076 Fit       0.002490
 1077 Fit       0.008637
 1078 Fit       0.008520
 1079 Fit       0.006708
 1080 Fit       0.001409
 1081 Fit       0.005724
 1082 Fit       0.006675
 1083 Fit       0.005509
 1084 Fit      -0.002782
 1085 Fit       0.001839
 1086 Fit       0.006535
 1087 Fit       0.005260
 1088 Fit       0.004018
 1089 Fit       0.006973
 1090 Fit       0.003765
 1091 Fit       0.005619
 1092 Fit       0.007361
 1093 Fit       0.002048
 1094 Fit      -0.004082
 1095 Fit       0.001566
 1096 Fit       0.006330
 1097 Fit       0.008178
 1098 Fit       0.006978
 1099 Fit      -0.002503
 1100 Fit      -0.002216
 1101 Fit      -0.001065
 1102 Fit      -0.005970
 1103 Fit      -0.000712
 1104 Fit      -0.004148
 1105 Fit       0.007855
 1106 Fit       0.009654
 1107 Fit       0.006135
 1108 Fit       0.000048
 1109 Fit       0.008893
 1110 Fit       0.023028
 1111 Fit       0.015873
 1112 Fit       0.004664
 1113 Fit       0.027833
 1114 Fit       0.024567
 1115 Fit       0.019285
 1116 Fit       0.012270
 1117 Fit       0.007280
 1118 Fit       0.014627
 1119 Fit       0.024116
 1120 Fit       0.022610
 1121 Fit       0.017662
 1122 Fit       0.019496
 1123 Fit       0.012253
 1124 Fit       0.008684
 1125 Fit       0.014235
 1126 Fit       0.017031
 1127 Fit       0.008153
 1128 Fit       0.004281
 1129 Fit       0.009300
 1130 Fit       0.001048
 1131 Fit       0.013582
 1132 Fit       0.021046
 1133 Fit       0.015929
 -----------------------------------------------------------------
 Leave Link  602 at Mon Feb 26 23:18:30 2018, MaxMem=   33554432 cpu:       0.6

 Test job not archived.
 1\1\GINC-NODE041\SP\RHF\6-31G(d)\C4H12N2O4S2\WULSDORT\26-Feb-2018\0\\#
 HF/6-31G* Geom=AllCheck Guess=Read Pop=(MK,ReadRadii) Integral=(Grid=U
 ltraFine) iop(6/33=2)\\Optimization for frag2-conf2\\0,1\C,0,-0.057108
 0422,1.2403032914,-1.9985082136\C,0,2.5057872104,2.8990175072,0.416976
 5219\C,0,0.0222675088,-3.389653253,0.1570970962\C,0,0.0876975929,0.168
 5154704,-0.9250357749\N,0,1.5403607582,1.8400795881,0.7518753674\N,0,0
 .0293202699,-1.1685031311,-1.4551970672\O,0,-1.4827155948,-3.097775666
 2,-2.014679815\O,0,-1.9781768766,-1.6579775294,0.0459094513\O,0,2.7848
 768397,0.4345175524,-1.0193399463\O,0,1.7216227289,-0.6876850579,1.029
 3071933\S,0,-1.035154298,-2.3379222669,-0.8460187056\S,0,1.7080182546,
 0.3395558242,-0.0254992815\H,0,0.7219211884,1.1357580454,-2.7605269765
 \H,0,-1.039271383,1.1409753429,-2.4712037943\H,0,0.0162264626,2.238194
 748,-1.5585425404\H,0,2.4996910043,3.0659454,-0.6609356251\H,0,3.53213
 54498,2.6695164757,0.7258751419\H,0,2.1730393996,3.8149125683,0.913445
 4461\H,0,-0.6265290392,-4.1213963103,0.6441736334\H,0,0.7366063131,-3.
 8863409904,-0.5015264655\H,0,0.5383758301,-2.7621693211,0.8852017562\H
 ,0,-0.6660841748,0.2790509103,-0.1410541098\H,0,1.4741857362,1.6574919
 158,1.7510338062\H,0,0.198141559,-1.2895104689,-2.4479322214\\Version=
 AM64L-G09RevC.01\State=1-A\HF=-1361.6643584\RMSD=3.081e-09\Dipole=0.65
 05264,1.547313,0.3134302\Quadrupole=-12.9918161,10.7171222,2.2746938,-
 2.1522346,0.8460562,-1.1219583\PG=C01 [X(C4H12N2O4S2)]\\@


 ...THOSE SCIENCES ARE VAIN AND FULL OF ERRORS WHICH 
 ARE NOT BORN FROM EXPERIMENT, THE MOTHER OF CERTAINTY...

                          -- LEONARDO DA VINCI, 1452-1519
 Job cpu time:  0 days  0 hours  2 minutes 42.8 seconds.
 File lengths (MBytes):  RWF=     29 Int=      0 D2E=      0 Chk=      5 Scr=      1
 Normal termination of Gaussian 09 at Mon Feb 26 23:18:30 2018.
