 Entering Gaussian System, Link 0=g09
 Initial command:
 /home/fb_chem/chemsoft/lx24-amd64/Gaussian_09_C.01_NBO_3.1_64_istanbul-64/g09/l1.exe /local/2426254.1.parallel/Gau-31287.inp -scrdir=/local/2426254.1.parallel/
 Entering Link 1 = /home/fb_chem/chemsoft/lx24-amd64/Gaussian_09_C.01_NBO_3.1_64_istanbul-64/g09/l1.exe PID=     31288.
  
 Copyright (c) 1988,1990,1992,1993,1995,1998,2003,2009,2011,
            Gaussian, Inc.  All Rights Reserved.
  
 This is part of the Gaussian(R) 09 program.  It is based on
 the Gaussian(R) 03 system (copyright 2003, Gaussian, Inc.),
 the Gaussian(R) 98 system (copyright 1998, Gaussian, Inc.),
 the Gaussian(R) 94 system (copyright 1995, Gaussian, Inc.),
 the Gaussian 92(TM) system (copyright 1992, Gaussian, Inc.),
 the Gaussian 90(TM) system (copyright 1990, Gaussian, Inc.),
 the Gaussian 88(TM) system (copyright 1988, Gaussian, Inc.),
 the Gaussian 86(TM) system (copyright 1986, Carnegie Mellon
 University), and the Gaussian 82(TM) system (copyright 1983,
 Carnegie Mellon University). Gaussian is a federally registered
 trademark of Gaussian, Inc.
  
 This software contains proprietary and confidential information,
 including trade secrets, belonging to Gaussian, Inc.
  
 This software is provided under written license and may be
 used, copied, transmitted, or stored only in accord with that
 written license.
  
 The following legend is applicable only to US Government
 contracts under FAR:
  
                    RESTRICTED RIGHTS LEGEND
  
 Use, reproduction and disclosure by the US Government is
 subject to restrictions as set forth in subparagraphs (a)
 and (c) of the Commercial Computer Software - Restricted
 Rights clause in FAR 52.227-19.
  
 Gaussian, Inc.
 340 Quinnipiac St., Bldg. 40, Wallingford CT 06492
  
  
 ---------------------------------------------------------------
 Warning -- This program may not be used in any manner that
 competes with the business of Gaussian, Inc. or will provide
 assistance to any competitor of Gaussian, Inc.  The licensee
 of this program is prohibited from giving any competitor of
 Gaussian, Inc. access to this program.  By using this program,
 the user acknowledges that Gaussian, Inc. is engaged in the
 business of creating and licensing software in the field of
 computational chemistry and represents and warrants to the
 licensee that it is not a competitor of Gaussian, Inc. and that
 it will not use this program in any manner prohibited above.
 ---------------------------------------------------------------
  

 Cite this work as:
 Gaussian 09, Revision C.01,
 M. J. Frisch, G. W. Trucks, H. B. Schlegel, G. E. Scuseria, 
 M. A. Robb, J. R. Cheeseman, G. Scalmani, V. Barone, B. Mennucci, 
 G. A. Petersson, H. Nakatsuji, M. Caricato, X. Li, H. P. Hratchian, 
 A. F. Izmaylov, J. Bloino, G. Zheng, J. L. Sonnenberg, M. Hada, 
 M. Ehara, K. Toyota, R. Fukuda, J. Hasegawa, M. Ishida, T. Nakajima, 
 Y. Honda, O. Kitao, H. Nakai, T. Vreven, J. A. Montgomery, Jr., 
 J. E. Peralta, F. Ogliaro, M. Bearpark, J. J. Heyd, E. Brothers, 
 K. N. Kudin, V. N. Staroverov, T. Keith, R. Kobayashi, J. Normand, 
 K. Raghavachari, A. Rendell, J. C. Burant, S. S. Iyengar, J. Tomasi, 
 M. Cossi, N. Rega, J. M. Millam, M. Klene, J. E. Knox, J. B. Cross, 
 V. Bakken, C. Adamo, J. Jaramillo, R. Gomperts, R. E. Stratmann, 
 O. Yazyev, A. J. Austin, R. Cammi, C. Pomelli, J. W. Ochterski, 
 R. L. Martin, K. Morokuma, V. G. Zakrzewski, G. A. Voth, 
 P. Salvador, J. J. Dannenberg, S. Dapprich, A. D. Daniels, 
 O. Farkas, J. B. Foresman, J. V. Ortiz, J. Cioslowski, 
 and D. J. Fox, Gaussian, Inc., Wallingford CT, 2010.
 
 ******************************************
 Gaussian 09:  AM64L-G09RevC.01 23-Sep-2011
                26-Feb-2018 
 ******************************************
 %nprocs=4
 Will use up to    4 processors via shared memory.
 %chk=frag2-conf2.chk
 ---------------------------------------------------------
 #B3LYP/6-31G* Integral=(Grid=UltraFine) freq Opt pop=none
 ---------------------------------------------------------
 1/14=-1,18=20,19=15,26=3,38=1/1,3;
 2/9=110,12=2,17=6,18=5,40=1/2;
 3/5=1,6=6,7=1,11=2,16=1,25=1,30=1,71=1,74=-5,75=-5/1,2,3;
 4//1;
 5/5=2,38=5/2;
 7//1,2,3,16;
 1/14=-1,18=20,19=15/3(2);
 2/9=110/2;
 99//99;
 2/9=110/2;
 3/5=1,6=6,7=1,11=2,16=1,25=1,30=1,71=1,74=-5,75=-5/1,2,3;
 4/5=5,16=3/1;
 5/5=2,38=5/2;
 7//1,2,3,16;
 1/14=-1,18=20,19=15/3(-5);
 2/9=110/2;
 99/9=1/99;
 ----------------------------
 Optimization for frag2-conf2
 ----------------------------
 Charge =  0 Multiplicity = 1
 Symbolic Z-Matrix:
 C                     0.0101    1.37258  -1.88272 
 C                     2.59936   2.52365   0.13845 
 C                     0.50442  -3.15819  -0.23526 
 C                    -0.22989   0.28093  -0.8399 
 N                     1.44869   1.8695    0.77009 
 N                    -0.48101  -1.00021  -1.61976 
 O                    -1.64769  -3.20114  -1.7265 
 O                    -1.74038  -1.87753   0.4052 
 O                     2.3403   -0.30007  -0.21143 
 O                     0.65239  -0.31329   1.64659 
 S                    -0.99722  -2.34386  -0.74931 
 S                     1.14432   0.25598   0.4018 
 H                     0.95265   1.20965  -2.4164 
 H                    -0.79409   1.3828   -2.62706 
 H                     0.04299   2.36567  -1.42545 
 H                     2.61976   2.35126  -0.93989 
 H                     3.52954   2.1709    0.59196 
 H                     2.52654   3.602     0.30706 
 H                     0.22664  -4.1436    0.14715 
 H                     1.15609  -3.27738  -1.10265 
 H                     0.99379  -2.59701   0.5552 
 H                    -1.13701   0.53768  -0.28124 
 H                     1.34045   2.04939   1.77433 
 H                     0.34451  -1.23483  -2.18538 
 

 GradGradGradGradGradGradGradGradGradGradGradGradGradGradGradGradGradGrad
 Berny optimization.
 Initialization pass.
                           ----------------------------
                           !    Initial Parameters    !
                           ! (Angstroms and Degrees)  !
 --------------------------                            --------------------------
 ! Name  Definition              Value          Derivative Info.                !
 --------------------------------------------------------------------------------
 ! R1    R(1,4)                  1.5286         estimate D2E/DX2                !
 ! R2    R(1,13)                 1.0953         estimate D2E/DX2                !
 ! R3    R(1,14)                 1.0958         estimate D2E/DX2                !
 ! R4    R(1,15)                 1.0938         estimate D2E/DX2                !
 ! R5    R(2,5)                  1.4666         estimate D2E/DX2                !
 ! R6    R(2,16)                 1.0922         estimate D2E/DX2                !
 ! R7    R(2,17)                 1.0933         estimate D2E/DX2                !
 ! R8    R(2,18)                 1.0939         estimate D2E/DX2                !
 ! R9    R(3,11)                 1.7839         estimate D2E/DX2                !
 ! R10   R(3,19)                 1.0929         estimate D2E/DX2                !
 ! R11   R(3,20)                 1.0914         estimate D2E/DX2                !
 ! R12   R(3,21)                 1.0859         estimate D2E/DX2                !
 ! R13   R(4,6)                  1.5207         estimate D2E/DX2                !
 ! R14   R(4,12)                 1.8523         estimate D2E/DX2                !
 ! R15   R(4,22)                 1.0959         estimate D2E/DX2                !
 ! R16   R(5,12)                 1.6828         estimate D2E/DX2                !
 ! R17   R(5,23)                 1.026          estimate D2E/DX2                !
 ! R18   R(6,11)                 1.6821         estimate D2E/DX2                !
 ! R19   R(6,24)                 1.0278         estimate D2E/DX2                !
 ! R20   R(7,11)                 1.4536         estimate D2E/DX2                !
 ! R21   R(8,11)                 1.45           estimate D2E/DX2                !
 ! R22   R(9,12)                 1.4545         estimate D2E/DX2                !
 ! R23   R(10,12)                1.4545         estimate D2E/DX2                !
 ! A1    A(4,1,13)             111.1776         estimate D2E/DX2                !
 ! A2    A(4,1,14)             110.7823         estimate D2E/DX2                !
 ! A3    A(4,1,15)             111.5867         estimate D2E/DX2                !
 ! A4    A(13,1,14)            107.5733         estimate D2E/DX2                !
 ! A5    A(13,1,15)            108.2319         estimate D2E/DX2                !
 ! A6    A(14,1,15)            107.3106         estimate D2E/DX2                !
 ! A7    A(5,2,16)             111.6825         estimate D2E/DX2                !
 ! A8    A(5,2,17)             110.1791         estimate D2E/DX2                !
 ! A9    A(5,2,18)             108.7288         estimate D2E/DX2                !
 ! A10   A(16,2,17)            110.0421         estimate D2E/DX2                !
 ! A11   A(16,2,18)            108.0003         estimate D2E/DX2                !
 ! A12   A(17,2,18)            108.105          estimate D2E/DX2                !
 ! A13   A(11,3,19)            107.3657         estimate D2E/DX2                !
 ! A14   A(11,3,20)            108.8715         estimate D2E/DX2                !
 ! A15   A(11,3,21)            110.6829         estimate D2E/DX2                !
 ! A16   A(19,3,20)            109.3517         estimate D2E/DX2                !
 ! A17   A(19,3,21)            109.0136         estimate D2E/DX2                !
 ! A18   A(20,3,21)            111.4599         estimate D2E/DX2                !
 ! A19   A(1,4,6)              106.1235         estimate D2E/DX2                !
 ! A20   A(1,4,12)             110.5154         estimate D2E/DX2                !
 ! A21   A(1,4,22)             108.0844         estimate D2E/DX2                !
 ! A22   A(6,4,12)             117.0617         estimate D2E/DX2                !
 ! A23   A(6,4,22)             108.7915         estimate D2E/DX2                !
 ! A24   A(12,4,22)            105.9937         estimate D2E/DX2                !
 ! A25   A(2,5,12)             118.381          estimate D2E/DX2                !
 ! A26   A(2,5,23)             115.2228         estimate D2E/DX2                !
 ! A27   A(12,5,23)            111.301          estimate D2E/DX2                !
 ! A28   A(4,6,11)             117.2736         estimate D2E/DX2                !
 ! A29   A(4,6,24)             109.9913         estimate D2E/DX2                !
 ! A30   A(11,6,24)            110.4206         estimate D2E/DX2                !
 ! A31   A(3,11,6)             104.7988         estimate D2E/DX2                !
 ! A32   A(3,11,7)             107.5285         estimate D2E/DX2                !
 ! A33   A(3,11,8)             110.4135         estimate D2E/DX2                !
 ! A34   A(6,11,7)             105.1021         estimate D2E/DX2                !
 ! A35   A(6,11,8)             108.2039         estimate D2E/DX2                !
 ! A36   A(7,11,8)             119.7072         estimate D2E/DX2                !
 ! A37   A(4,12,5)             105.5449         estimate D2E/DX2                !
 ! A38   A(4,12,9)             109.4236         estimate D2E/DX2                !
 ! A39   A(4,12,10)            109.1517         estimate D2E/DX2                !
 ! A40   A(5,12,9)             108.0656         estimate D2E/DX2                !
 ! A41   A(5,12,10)            104.4273         estimate D2E/DX2                !
 ! A42   A(9,12,10)            119.2938         estimate D2E/DX2                !
 ! D1    D(13,1,4,6)           -68.1492         estimate D2E/DX2                !
 ! D2    D(13,1,4,12)           59.7169         estimate D2E/DX2                !
 ! D3    D(13,1,4,22)          175.2905         estimate D2E/DX2                !
 ! D4    D(14,1,4,6)            51.4123         estimate D2E/DX2                !
 ! D5    D(14,1,4,12)          179.2785         estimate D2E/DX2                !
 ! D6    D(14,1,4,22)          -65.148          estimate D2E/DX2                !
 ! D7    D(15,1,4,6)           170.9122         estimate D2E/DX2                !
 ! D8    D(15,1,4,12)          -61.2217         estimate D2E/DX2                !
 ! D9    D(15,1,4,22)           54.3519         estimate D2E/DX2                !
 ! D10   D(16,2,5,12)           48.6937         estimate D2E/DX2                !
 ! D11   D(16,2,5,23)         -175.9978         estimate D2E/DX2                !
 ! D12   D(17,2,5,12)          -73.9248         estimate D2E/DX2                !
 ! D13   D(17,2,5,23)           61.3837         estimate D2E/DX2                !
 ! D14   D(18,2,5,12)          167.7682         estimate D2E/DX2                !
 ! D15   D(18,2,5,23)          -56.9233         estimate D2E/DX2                !
 ! D16   D(19,3,11,6)         -168.1342         estimate D2E/DX2                !
 ! D17   D(19,3,11,7)          -56.6624         estimate D2E/DX2                !
 ! D18   D(19,3,11,8)           75.5646         estimate D2E/DX2                !
 ! D19   D(20,3,11,6)          -49.8524         estimate D2E/DX2                !
 ! D20   D(20,3,11,7)           61.6194         estimate D2E/DX2                !
 ! D21   D(20,3,11,8)         -166.1536         estimate D2E/DX2                !
 ! D22   D(21,3,11,6)           72.9889         estimate D2E/DX2                !
 ! D23   D(21,3,11,7)         -175.5393         estimate D2E/DX2                !
 ! D24   D(21,3,11,8)          -43.3123         estimate D2E/DX2                !
 ! D25   D(1,4,6,11)          -171.4436         estimate D2E/DX2                !
 ! D26   D(1,4,6,24)            61.3077         estimate D2E/DX2                !
 ! D27   D(12,4,6,11)           64.684          estimate D2E/DX2                !
 ! D28   D(12,4,6,24)          -62.5648         estimate D2E/DX2                !
 ! D29   D(22,4,6,11)          -55.3598         estimate D2E/DX2                !
 ! D30   D(22,4,6,24)          177.3915         estimate D2E/DX2                !
 ! D31   D(1,4,12,5)            43.2006         estimate D2E/DX2                !
 ! D32   D(1,4,12,9)           -72.8646         estimate D2E/DX2                !
 ! D33   D(1,4,12,10)          154.939          estimate D2E/DX2                !
 ! D34   D(6,4,12,5)           164.8108         estimate D2E/DX2                !
 ! D35   D(6,4,12,9)            48.7456         estimate D2E/DX2                !
 ! D36   D(6,4,12,10)          -83.4509         estimate D2E/DX2                !
 ! D37   D(22,4,12,5)          -73.6738         estimate D2E/DX2                !
 ! D38   D(22,4,12,9)          170.261          estimate D2E/DX2                !
 ! D39   D(22,4,12,10)          38.0645         estimate D2E/DX2                !
 ! D40   D(2,5,12,4)          -100.8786         estimate D2E/DX2                !
 ! D41   D(2,5,12,9)            16.1098         estimate D2E/DX2                !
 ! D42   D(2,5,12,10)          144.086          estimate D2E/DX2                !
 ! D43   D(23,5,12,4)          122.1911         estimate D2E/DX2                !
 ! D44   D(23,5,12,9)         -120.8205         estimate D2E/DX2                !
 ! D45   D(23,5,12,10)           7.1557         estimate D2E/DX2                !
 ! D46   D(4,6,11,3)           -88.7162         estimate D2E/DX2                !
 ! D47   D(4,6,11,7)           158.0833         estimate D2E/DX2                !
 ! D48   D(4,6,11,8)            29.1006         estimate D2E/DX2                !
 ! D49   D(24,6,11,3)           38.3239         estimate D2E/DX2                !
 ! D50   D(24,6,11,7)          -74.8766         estimate D2E/DX2                !
 ! D51   D(24,6,11,8)          156.1408         estimate D2E/DX2                !
 --------------------------------------------------------------------------------
 Trust Radius=3.00D-01 FncErr=1.00D-07 GrdErr=1.00D-06
 Number of steps in this run=    126 maximum allowed number of steps=    144.
 GradGradGradGradGradGradGradGradGradGradGradGradGradGradGradGradGradGrad

                          Input orientation:                          
 ---------------------------------------------------------------------
 Center     Atomic      Atomic             Coordinates (Angstroms)
 Number     Number       Type             X           Y           Z
 ---------------------------------------------------------------------
      1          6           0        0.010104    1.372578   -1.882716
      2          6           0        2.599357    2.523655    0.138450
      3          6           0        0.504418   -3.158189   -0.235259
      4          6           0       -0.229887    0.280931   -0.839902
      5          7           0        1.448691    1.869501    0.770091
      6          7           0       -0.481011   -1.000214   -1.619764
      7          8           0       -1.647694   -3.201144   -1.726502
      8          8           0       -1.740378   -1.877527    0.405199
      9          8           0        2.340303   -0.300075   -0.211432
     10          8           0        0.652389   -0.313288    1.646593
     11         16           0       -0.997221   -2.343858   -0.749305
     12         16           0        1.144315    0.255982    0.401804
     13          1           0        0.952645    1.209655   -2.416403
     14          1           0       -0.794086    1.382804   -2.627057
     15          1           0        0.042993    2.365671   -1.425451
     16          1           0        2.619758    2.351261   -0.939890
     17          1           0        3.529540    2.170903    0.591957
     18          1           0        2.526543    3.601995    0.307061
     19          1           0        0.226639   -4.143601    0.147149
     20          1           0        1.156088   -3.277378   -1.102646
     21          1           0        0.993787   -2.597009    0.555197
     22          1           0       -1.137008    0.537682   -0.281237
     23          1           0        1.340446    2.049393    1.774335
     24          1           0        0.344505   -1.234829   -2.185375
 ---------------------------------------------------------------------
                    Distance matrix (angstroms):
                    1          2          3          4          5
     1  C    0.000000
     2  C    3.480564   0.000000
     3  C    4.846268   6.067271   0.000000
     4  C    1.528644   3.740535   3.568241   0.000000
     5  N    3.058407   1.466602   5.213448   2.816603   0.000000
     6  N    2.437310   4.999764   2.746776   1.520718   4.203620
     7  O    4.867405   7.368094   2.618633   3.862782   6.444533
     8  O    4.343032   6.186667   2.662591   2.913897   4.933915
     9  O    3.319757   2.857092   3.397036   2.708952   2.542718
    10  O    3.963673   3.756784   3.414194   2.704471   2.483328
    11  S    4.013879   6.116875   1.783900   2.736152   5.103277
    12  S    2.784287   2.707183   3.531555   1.852265   1.682772
    13  H    1.095331   3.311424   4.902688   2.178593   3.291687
    14  H    1.095841   4.523829   5.294093   2.174021   4.099699
    15  H    1.093804   3.000957   5.669435   2.182538   2.653785
    16  H    2.942284   1.092223   5.943501   3.523739   2.127798
    17  H    4.375815   1.093317   6.183434   4.444716   2.110096
    18  H    4.012218   1.093869   7.076948   4.465747   2.092296
    19  H    5.881792   7.076876   1.092902   4.556224   6.167565
    20  H    4.852204   6.105352   1.091440   3.827731   5.484808
    21  H    4.761164   5.382632   1.085922   3.424357   4.494755
    22  H    2.139545   4.252135   4.044238   1.095854   3.092712
    23  H    3.949925   2.117994   5.644140   3.525285   1.025955
    24  H    2.646129   4.960919   2.743691   2.106598   4.426157
                    6          7          8          9         10
     6  N    0.000000
     7  O    2.493318   0.000000
     8  O    2.540897   2.510917   0.000000
     9  O    3.230078   5.159046   4.418206   0.000000
    10  O    3.524990   5.000786   3.116606   2.510276   0.000000
    11  S    1.682127   1.453605   1.450043   3.950370   3.547500
    12  S    2.882092   4.927142   3.587942   1.454525   1.454497
    13  H    2.752003   5.166514   4.974384   3.011108   4.349419
    14  H    2.606037   4.748918   4.551900   4.300200   4.820073
    15  H    3.411967   5.825674   4.953425   3.722590   4.121364
    16  H    4.616209   7.046922   6.221149   2.763753   4.202411
    17  H    5.570656   7.812675   6.648059   2.857525   3.944801
    18  H    5.825665   8.236646   6.945603   3.940771   4.542714
    19  H    3.674729   2.812814   3.011784   4.401005   4.135323
    20  H    2.851838   2.873361   3.552843   3.325802   4.074047
    21  H    3.074938   3.542394   2.831221   2.770692   2.554031
    22  H    2.141755   4.040843   2.582341   3.577485   2.764529
    23  H    4.913015   6.982333   5.175587   3.234653   2.464143
    24  H    1.027831   2.836515   3.386868   2.958619   3.953228
                   11         12         13         14         15
    11  S    0.000000
    12  S    3.559551   0.000000
    13  H    4.382767   2.981362   0.000000
    14  H    4.177945   3.768438   1.767888   0.000000
    15  H    4.870203   3.000426   1.773648   1.763685   0.000000
    16  H    5.929840   2.892622   2.502523   3.929220   2.622154
    17  H    6.532504   3.064698   4.076103   5.447650   4.032849
    18  H    6.991852   3.621510   3.951925   4.955849   3.270798
    19  H    2.353836   4.501479   5.979651   6.267316   6.699061
    20  H    2.373405   3.840331   4.679830   5.276770   5.760832
    21  H    2.393726   2.861074   4.829367   5.400198   5.427261
    22  H    2.922653   2.397986   3.062210   2.516882   2.458286
    23  H    5.579794   2.266855   4.291600   4.936883   3.467282
    24  H    2.256651   3.091231   2.529566   2.888507   3.692153
                   16         17         18         19         20
    16  H    0.000000
    17  H    1.790750   0.000000
    18  H    1.768590   1.770648   0.000000
    19  H    7.006562   7.140026   8.081423   0.000000
    20  H    5.818109   6.179702   7.154803   1.782191   0.000000
    21  H    5.418897   5.400405   6.390506   1.773969   1.799358
    22  H    4.223290   5.020612   4.812247   4.894637   4.526333
    23  H    3.015755   2.490966   2.443418   6.499344   6.056855
    24  H    4.425839   5.427433   5.862457   3.730351   2.450097
                   21         22         23         24
    21  H    0.000000
    22  H    3.881520   0.000000
    23  H    4.816172   3.556462   0.000000
    24  H    3.128552   2.993730   5.239973   0.000000
 Stoichiometry    C4H12N2O4S2
 Framework group  C1[X(C4H12N2O4S2)]
 Deg. of freedom    66
 Full point group                 C1      NOp   1
 Largest Abelian subgroup         C1      NOp   1
 Largest concise Abelian subgroup C1      NOp   1
                         Standard orientation:                         
 ---------------------------------------------------------------------
 Center     Atomic      Atomic             Coordinates (Angstroms)
 Number     Number       Type             X           Y           Z
 ---------------------------------------------------------------------
      1          6           0       -1.078215    2.255951    0.004309
      2          6           0       -3.837090    0.163711    0.358514
      3          6           0        2.002077   -1.343594    1.024789
      4          6           0       -0.271966    1.017044   -0.385336
      5          7           0       -2.806714   -0.187626   -0.624241
      6          7           0        1.065813    1.142574    0.326824
      7          8           0        3.513471    0.668344    0.300199
      8          8           0        2.053076   -0.375920   -1.455210
      9          8           0       -1.327871   -0.762913    1.362587
     10          8           0       -0.775938   -1.580267   -0.945830
     11         16           0        2.262654    0.032723   -0.079814
     12         16           0       -1.253420   -0.521827   -0.069886
     13          1           0       -1.350543    2.233369    1.065006
     14          1           0       -0.496701    3.168532   -0.168627
     15          1           0       -1.997062    2.339300   -0.583211
     16          1           0       -3.488297    0.932426    1.051603
     17          1           0       -4.149398   -0.725956    0.911958
     18          1           0       -4.708874    0.557396   -0.172103
     19          1           0        2.877050   -1.993915    0.947705
     20          1           0        1.920651   -0.966364    2.045724
     21          1           0        1.117936   -1.904466    0.736792
     22          1           0       -0.100344    1.049255   -1.467188
     23          1           0       -3.098646   -0.859432   -1.342597
     24          1           0        0.922066    1.158253    1.344433
 ---------------------------------------------------------------------
 Rotational constants (GHZ):      1.5191329      0.4673168      0.4284511
 Standard basis: 6-31G(d) (6D, 7F)
 There are   212 symmetry adapted basis functions of A   symmetry.
 Integral buffers will be    131072 words long.
 Raffenetti 2 integral format.
 Two-electron integral symmetry is turned on.
   212 basis functions,   432 primitive gaussians,   212 cartesian basis functions
    57 alpha electrons       57 beta electrons
       nuclear repulsion energy      1123.9730159965 Hartrees.
 NAtoms=   24 NActive=   24 NUniq=   24 SFac= 1.00D+00 NAtFMM=   60 NAOKFM=F Big=F
 One-electron integrals computed using PRISM.
 NBasis=   212 RedAO= T  NBF=   212
 NBsUse=   212 1.00D-06 NBFU=   212
 Harris functional with IExCor=  402 diagonalized for initial guess.
 ExpMin= 1.17D-01 ExpMax= 2.19D+04 ExpMxC= 3.30D+03 IAcc=3 IRadAn=         5 AccDes= 0.00D+00
 HarFok:  IExCor=  402 AccDes= 0.00D+00 IRadAn=         5 IDoV= 1
 ScaDFX=  1.000000  1.000000  1.000000  1.000000
 FoFCou: FMM=F IPFlag=           0 FMFlag=      100000 FMFlg1=           0
         NFxFlg=           0 DoJE=T BraDBF=F KetDBF=T FulRan=T
         Omega=  0.000000  0.000000  1.000000  0.000000  0.000000 ICntrl=     500 IOpCl=  0
         NMat0=    1 NMatS0=    1 NMatT0=    0 NMatD0=    1 NMtDS0=    0 NMtDT0=    0
         I1Cent=           4 NGrid=           0.
 Petite list used in FoFCou.
 Initial guess orbital symmetries:
       Occupied  (A) (A) (A) (A) (A) (A) (A) (A) (A) (A) (A) (A)
                 (A) (A) (A) (A) (A) (A) (A) (A) (A) (A) (A) (A)
                 (A) (A) (A) (A) (A) (A) (A) (A) (A) (A) (A) (A)
                 (A) (A) (A) (A) (A) (A) (A) (A) (A) (A) (A) (A)
                 (A) (A) (A) (A) (A) (A) (A) (A) (A)
       Virtual   (A) (A) (A) (A) (A) (A) (A) (A) (A) (A) (A) (A)
                 (A) (A) (A) (A) (A) (A) (A) (A) (A) (A) (A) (A)
                 (A) (A) (A) (A) (A) (A) (A) (A) (A) (A) (A) (A)
                 (A) (A) (A) (A) (A) (A) (A) (A) (A) (A) (A) (A)
                 (A) (A) (A) (A) (A) (A) (A) (A) (A) (A) (A) (A)
                 (A) (A) (A) (A) (A) (A) (A) (A) (A) (A) (A) (A)
                 (A) (A) (A) (A) (A) (A) (A) (A) (A) (A) (A) (A)
                 (A) (A) (A) (A) (A) (A) (A) (A) (A) (A) (A) (A)
                 (A) (A) (A) (A) (A) (A) (A) (A) (A) (A) (A) (A)
                 (A) (A) (A) (A) (A) (A) (A) (A) (A) (A) (A) (A)
                 (A) (A) (A) (A) (A) (A) (A) (A) (A) (A) (A) (A)
                 (A) (A) (A) (A) (A) (A) (A) (A) (A) (A) (A) (A)
                 (A) (A) (A) (A) (A) (A) (A) (A) (A) (A) (A)
 The electronic state of the initial guess is 1-A.
 Requested convergence on RMS density matrix=1.00D-08 within 128 cycles.
 Requested convergence on MAX density matrix=1.00D-06.
 Requested convergence on             energy=1.00D-06.
 No special actions if energy rises.
 Integral accuracy reduced to 1.0D-05 until final iterations.
 Initial convergence to 1.0D-05 achieved.  Increase integral accuracy.
 SCF Done:  E(RB3LYP) =  -1366.27588489     A.U. after   15 cycles
             Convg  =    0.5789D-08             -V/T =  2.0060
 Calling FoFJK, ICntrl=      2127 FMM=F ISym2X=0 I1Cent= 0 IOpClX= 0 NMat=1 NMatS=1 NMatT=0.
 ***** Axes restored to original set *****
 -------------------------------------------------------------------
 Center     Atomic                   Forces (Hartrees/Bohr)
 Number     Number              X              Y              Z
 -------------------------------------------------------------------
      1        6           0.003898126    0.006210492   -0.004462466
      2        6           0.004061853    0.002631883    0.007997176
      3        6           0.005715304   -0.008529273    0.004193571
      4        6          -0.017462701   -0.002618080   -0.029320280
      5        7          -0.009384012    0.006813093   -0.006542339
      6        7           0.023749490    0.036962220    0.023874787
      7        8          -0.000336986   -0.007788295   -0.009059935
      8        8          -0.004497097    0.008028948    0.009260516
      9        8           0.011050075   -0.009379949   -0.019961761
     10        8          -0.009196486   -0.007981244    0.009673652
     11       16          -0.010502158   -0.016775104   -0.001190763
     12       16           0.003273485    0.010640840    0.019909306
     13        1           0.000610878   -0.000256324   -0.000730861
     14        1          -0.000419419   -0.004033874    0.002992065
     15        1           0.000779960   -0.001810424    0.001657999
     16        1          -0.000820059   -0.001963128    0.002470658
     17        1           0.004373102   -0.000174500   -0.004625143
     18        1          -0.002275187    0.000443400   -0.000137820
     19        1          -0.001867816   -0.000170339   -0.000970782
     20        1           0.000886088   -0.000603446    0.000199593
     21        1           0.001233553    0.003141299    0.000693803
     22        1           0.003826233   -0.008134722    0.002616969
     23        1          -0.000322731   -0.006067068   -0.008446364
     24        1          -0.006373495    0.001413596   -0.000091581
 -------------------------------------------------------------------
 Cartesian Forces:  Max     0.036962220 RMS     0.009542205

 GradGradGradGradGradGradGradGradGradGradGradGradGradGradGradGradGradGrad
 Berny optimization.
 Internal  Forces:  Max     0.028331668 RMS     0.006172861
 Search for a local minimum.
 Step number   1 out of a maximum of  126
 All quantities printed in internal units (Hartrees-Bohrs-Radians)
 Mixed Optimization -- RFO/linear search
 Second derivative matrix not updated -- first step.
 ITU=  0
     Eigenvalues ---    0.00230   0.00230   0.00387   0.00583   0.00811
     Eigenvalues ---    0.01524   0.01533   0.02088   0.02312   0.03640
     Eigenvalues ---    0.04702   0.05447   0.05560   0.05779   0.05827
     Eigenvalues ---    0.06227   0.07211   0.07612   0.07984   0.08177
     Eigenvalues ---    0.08436   0.08892   0.12056   0.12971   0.12975
     Eigenvalues ---    0.13190   0.16000   0.16000   0.16000   0.16000
     Eigenvalues ---    0.16000   0.16000   0.16000   0.16000   0.16000
     Eigenvalues ---    0.16329   0.18383   0.18483   0.18646   0.22397
     Eigenvalues ---    0.22750   0.23166   0.25000   0.25000   0.27427
     Eigenvalues ---    0.29549   0.30298   0.34145   0.34146   0.34204
     Eigenvalues ---    0.34369   0.34377   0.34432   0.34479   0.34557
     Eigenvalues ---    0.34647   0.35288   0.36150   0.38046   0.38130
     Eigenvalues ---    0.43112   0.43401   0.93947   0.93959   0.94348
     Eigenvalues ---    0.95920
 RFO step:  Lambda=-2.10131168D-02 EMin= 2.30000000D-03
 Linear search not attempted -- first point.
 Iteration  1 RMS(Cart)=  0.16819243 RMS(Int)=  0.00907591
 Iteration  2 RMS(Cart)=  0.01832536 RMS(Int)=  0.00084424
 Iteration  3 RMS(Cart)=  0.00023312 RMS(Int)=  0.00083932
 Iteration  4 RMS(Cart)=  0.00000023 RMS(Int)=  0.00083932
 Variable       Old X    -DE/DX   Delta X   Delta X   Delta X     New X
                                 (Linear)    (Quad)   (Total)
    R1        2.88872   0.00121   0.00000   0.00384   0.00384   2.89255
    R2        2.06988   0.00092   0.00000   0.00254   0.00254   2.07241
    R3        2.07084  -0.00176   0.00000  -0.00486  -0.00486   2.06598
    R4        2.06699  -0.00093   0.00000  -0.00254  -0.00254   2.06445
    R5        2.77148   0.00215   0.00000   0.00562   0.00562   2.77709
    R6        2.06400  -0.00214   0.00000  -0.00585  -0.00585   2.05815
    R7        2.06607   0.00186   0.00000   0.00509   0.00509   2.07115
    R8        2.06711   0.00057   0.00000   0.00156   0.00156   2.06867
    R9        3.37108   0.00902   0.00000   0.03056   0.03056   3.40164
   R10        2.06529   0.00029   0.00000   0.00079   0.00079   2.06608
   R11        2.06252   0.00044   0.00000   0.00119   0.00119   2.06371
   R12        2.05209   0.00268   0.00000   0.00718   0.00718   2.05928
   R13        2.87374  -0.02833   0.00000  -0.08745  -0.08745   2.78629
   R14        3.50027   0.00085   0.00000   0.00349   0.00349   3.50376
   R15        2.07086  -0.00374   0.00000  -0.01032  -0.01032   2.06055
   R16        3.17998  -0.00121   0.00000  -0.00300  -0.00300   3.17698
   R17        1.93877  -0.00930   0.00000  -0.02043  -0.02043   1.91834
   R18        3.17876   0.02262   0.00000   0.05623   0.05623   3.23499
   R19        1.94232  -0.00539   0.00000  -0.01192  -0.01192   1.93040
   R20        2.74692   0.01083   0.00000   0.01123   0.01123   2.75815
   R21        2.74018   0.01226   0.00000   0.01251   0.01251   2.75269
   R22        2.74865   0.02109   0.00000   0.02196   0.02196   2.77061
   R23        2.74860   0.01451   0.00000   0.01511   0.01511   2.76371
    A1        1.94041   0.00164   0.00000   0.00969   0.00971   1.95013
    A2        1.93352  -0.00637   0.00000  -0.03715  -0.03727   1.89625
    A3        1.94756  -0.00182   0.00000  -0.00875  -0.00886   1.93870
    A4        1.87751   0.00208   0.00000   0.00902   0.00904   1.88654
    A5        1.88900   0.00069   0.00000   0.00740   0.00742   1.89643
    A6        1.87292   0.00414   0.00000   0.02166   0.02141   1.89433
    A7        1.94923  -0.00487   0.00000  -0.03287  -0.03288   1.91635
    A8        1.92299   0.00869   0.00000   0.05164   0.05167   1.97465
    A9        1.89768  -0.00265   0.00000  -0.01242  -0.01284   1.88483
   A10        1.92060  -0.00327   0.00000  -0.02232  -0.02194   1.89866
   A11        1.88496   0.00179   0.00000   0.00236   0.00188   1.88684
   A12        1.88679   0.00031   0.00000   0.01413   0.01378   1.90056
   A13        1.87388  -0.00273   0.00000  -0.01471  -0.01472   1.85916
   A14        1.90017   0.00197   0.00000   0.01021   0.01024   1.91040
   A15        1.93178  -0.00159   0.00000  -0.00845  -0.00846   1.92332
   A16        1.90855   0.00025   0.00000   0.00064   0.00068   1.90923
   A17        1.90265   0.00236   0.00000   0.01446   0.01441   1.91705
   A18        1.94534  -0.00035   0.00000  -0.00259  -0.00257   1.94277
   A19        1.85221   0.00556   0.00000   0.02409   0.02355   1.87575
   A20        1.92886  -0.00035   0.00000  -0.00175  -0.00172   1.92714
   A21        1.88643   0.00185   0.00000   0.04975   0.04960   1.93603
   A22        2.04311  -0.00783   0.00000  -0.05882  -0.05897   1.98414
   A23        1.89877  -0.00072   0.00000  -0.01274  -0.01401   1.88476
   A24        1.84994   0.00201   0.00000   0.00742   0.00640   1.85634
   A25        2.06614   0.00790   0.00000   0.02784   0.02788   2.09402
   A26        2.01102  -0.00017   0.00000   0.00086   0.00093   2.01194
   A27        1.94257  -0.00704   0.00000  -0.04468  -0.04464   1.89793
   A28        2.04681   0.01774   0.00000   0.08422   0.08122   2.12803
   A29        1.91971  -0.00688   0.00000  -0.00594  -0.01053   1.90918
   A30        1.92720  -0.00168   0.00000   0.03580   0.03287   1.96007
   A31        1.82908   0.01207   0.00000   0.04163   0.04181   1.87089
   A32        1.87673  -0.00446   0.00000  -0.01464  -0.01468   1.86204
   A33        1.92708  -0.00218   0.00000  -0.00825  -0.00791   1.91917
   A34        1.83438  -0.00187   0.00000  -0.00280  -0.00272   1.83166
   A35        1.88851  -0.00703   0.00000  -0.03450  -0.03442   1.85410
   A36        2.08929   0.00491   0.00000   0.02294   0.02279   2.11207
   A37        1.84211  -0.00898   0.00000  -0.04140  -0.04122   1.80089
   A38        1.90980  -0.01039   0.00000  -0.06923  -0.06888   1.84092
   A39        1.90506  -0.00078   0.00000  -0.01332  -0.01289   1.89216
   A40        1.88610   0.00960   0.00000   0.04640   0.04358   1.92968
   A41        1.82260   0.00548   0.00000   0.03952   0.03829   1.86089
   A42        2.08207   0.00439   0.00000   0.03554   0.03245   2.11453
    D1       -1.18943   0.00361   0.00000   0.03887   0.03927  -1.15016
    D2        1.04226  -0.00255   0.00000  -0.01919  -0.01936   1.02290
    D3        3.05940   0.00072   0.00000   0.01716   0.01694   3.07633
    D4        0.89731   0.00309   0.00000   0.03202   0.03235   0.92967
    D5        3.12900  -0.00307   0.00000  -0.02603  -0.02628   3.10272
    D6       -1.13705   0.00020   0.00000   0.01032   0.01002  -1.12703
    D7        2.98298   0.00285   0.00000   0.02872   0.02919   3.01217
    D8       -1.06852  -0.00332   0.00000  -0.02934  -0.02944  -1.09796
    D9        0.94862  -0.00005   0.00000   0.00701   0.00686   0.95548
   D10        0.84987   0.00171   0.00000   0.02979   0.02944   0.87930
   D11       -3.07174  -0.00062   0.00000  -0.00966  -0.01001  -3.08175
   D12       -1.29023   0.00311   0.00000   0.04452   0.04481  -1.24543
   D13        1.07135   0.00078   0.00000   0.00507   0.00536   1.07670
   D14        2.92811  -0.00075   0.00000   0.00471   0.00477   2.93288
   D15       -0.99350  -0.00307   0.00000  -0.03475  -0.03468  -1.02818
   D16       -2.93450  -0.00145   0.00000  -0.01738  -0.01730  -2.95179
   D17       -0.98895  -0.00003   0.00000  -0.00805  -0.00808  -0.99702
   D18        1.31885   0.00123   0.00000   0.00420   0.00423   1.32308
   D19       -0.87009  -0.00162   0.00000  -0.01930  -0.01925  -0.88934
   D20        1.07546  -0.00019   0.00000  -0.00997  -0.01003   1.06543
   D21       -2.89993   0.00107   0.00000   0.00228   0.00227  -2.89765
   D22        1.27390  -0.00177   0.00000  -0.02121  -0.02117   1.25272
   D23       -3.06374  -0.00034   0.00000  -0.01187  -0.01195  -3.07569
   D24       -0.75594   0.00092   0.00000   0.00037   0.00035  -0.75559
   D25       -2.99226   0.00454   0.00000   0.17451   0.17434  -2.81791
   D26        1.07002  -0.00179   0.00000   0.05804   0.05836   1.12838
   D27        1.12895   0.00591   0.00000   0.19796   0.19815   1.32710
   D28       -1.09196  -0.00042   0.00000   0.08150   0.08217  -1.00979
   D29       -0.96621   0.00923   0.00000   0.23872   0.23796  -0.72825
   D30        3.09606   0.00290   0.00000   0.12225   0.12198  -3.06514
   D31        0.75399   0.00129   0.00000   0.04965   0.05006   0.80405
   D32       -1.27173  -0.00014   0.00000   0.05087   0.05031  -1.22141
   D33        2.70420   0.00287   0.00000   0.06903   0.06870   2.77290
   D34        2.87649   0.00261   0.00000   0.03644   0.03716   2.91366
   D35        0.85077   0.00118   0.00000   0.03766   0.03742   0.88819
   D36       -1.45649   0.00419   0.00000   0.05582   0.05581  -1.40068
   D37       -1.28585  -0.00186   0.00000  -0.01254  -0.01197  -1.29782
   D38        2.97161  -0.00328   0.00000  -0.01132  -0.01172   2.95990
   D39        0.66435  -0.00027   0.00000   0.00684   0.00667   0.67102
   D40       -1.76066   0.00262   0.00000  -0.01018  -0.00994  -1.77060
   D41        0.28117  -0.00935   0.00000  -0.08899  -0.09054   0.19063
   D42        2.51478   0.00487   0.00000   0.00496   0.00622   2.52100
   D43        2.13264   0.00233   0.00000   0.01044   0.01071   2.14335
   D44       -2.10872  -0.00964   0.00000  -0.06838  -0.06989  -2.17861
   D45        0.12489   0.00458   0.00000   0.02558   0.02687   0.15176
   D46       -1.54839  -0.00038   0.00000   0.00639   0.00548  -1.54291
   D47        2.75907   0.00042   0.00000   0.00685   0.00574   2.76481
   D48        0.50790  -0.00005   0.00000   0.00186   0.00053   0.50843
   D49        0.66888   0.00351   0.00000   0.10322   0.10453   0.77341
   D50       -1.30684   0.00431   0.00000   0.10367   0.10480  -1.20205
   D51        2.72517   0.00384   0.00000   0.09868   0.09959   2.82476
         Item               Value     Threshold  Converged?
 Maximum Force            0.028332     0.000450     NO 
 RMS     Force            0.006173     0.000300     NO 
 Maximum Displacement     0.546729     0.001800     NO 
 RMS     Displacement     0.180680     0.001200     NO 
 Predicted change in Energy=-1.355185D-02
 GradGradGradGradGradGradGradGradGradGradGradGradGradGradGradGradGradGrad

                          Input orientation:                          
 ---------------------------------------------------------------------
 Center     Atomic      Atomic             Coordinates (Angstroms)
 Number     Number       Type             X           Y           Z
 ---------------------------------------------------------------------
      1          6           0        0.013632    1.407015   -1.843807
      2          6           0        2.559965    2.659165    0.112130
      3          6           0        0.343727   -3.293445   -0.102005
      4          6           0       -0.148891    0.283091   -0.817482
      5          7           0        1.502794    1.863224    0.751285
      6          7           0       -0.343651   -0.973382   -1.564024
      7          8           0       -1.522059   -3.168547   -1.941196
      8          8           0       -1.908279   -1.886220    0.215062
      9          8           0        2.432174   -0.222673   -0.470469
     10          8           0        0.902678   -0.452120    1.558077
     11         16           0       -1.016218   -2.366766   -0.831440
     12         16           0        1.301697    0.246415    0.336719
     13          1           0        0.932527    1.290956   -2.431049
     14          1           0       -0.835205    1.377246   -2.532157
     15          1           0        0.031462    2.384578   -1.356448
     16          1           0        2.503409    2.546681   -0.969695
     17          1           0        3.567359    2.382488    0.443552
     18          1           0        2.383770    3.712072    0.354399
     19          1           0       -0.062677   -4.266449    0.186865
     20          1           0        1.128649   -3.435326   -0.847913
     21          1           0        0.722911   -2.774929    0.778252
     22          1           0       -1.030762    0.446497   -0.197350
     23          1           0        1.444847    1.950720    1.760989
     24          1           0        0.501376   -1.185390   -2.097400
 ---------------------------------------------------------------------
                    Distance matrix (angstroms):
                    1          2          3          4          5
     1  C    0.000000
     2  C    3.446357   0.000000
     3  C    5.023660   6.355401   0.000000
     4  C    1.530674   3.721264   3.680515   0.000000
     5  N    3.026587   1.469575   5.353763   2.772348   0.000000
     6  N    2.423267   4.943266   2.827132   1.474443   4.100775
     7  O    4.827381   7.405491   2.622856   3.880996   6.458940
     8  O    4.333368   6.374662   2.674386   2.977835   5.097184
     9  O    3.223551   2.942914   3.731891   2.652944   2.589865
    10  O    3.977386   3.810178   3.337877   2.699929   2.524257
    11  S    4.040656   6.240143   1.800071   2.788224   5.171388
    12  S    2.785820   2.730392   3.693345   1.854112   1.681183
    13  H    1.096673   3.314862   5.175699   2.188345   3.283283
    14  H    1.093269   4.490295   5.395449   2.146698   4.059976
    15  H    1.092458   2.936911   5.823322   2.176984   2.622817
    16  H    2.874352   1.089127   6.286826   3.490230   2.104785
    17  H    4.337341   1.096008   6.550240   4.450639   2.150991
    18  H    3.970258   1.094693   7.310769   4.421039   2.086115
    19  H    6.026413   7.405941   1.093320   4.659878   6.351548
    20  H    5.067873   6.333495   1.092068   3.931877   5.547256
    21  H    4.986675   5.774760   1.089721   3.557794   4.703340
    22  H    2.173516   4.229066   3.985658   1.090395   3.053839
    23  H    3.916445   2.112845   5.673136   3.459697   1.015142
    24  H    2.650050   4.888805   2.906948   2.053649   4.290908
                    6          7          8          9         10
     6  N    0.000000
     7  O    2.519851   0.000000
     8  O    2.538992   2.538302   0.000000
     9  O    3.076464   5.145596   4.698603   0.000000
    10  O    3.401848   5.050073   3.429550   2.550883   0.000000
    11  S    1.711883   1.459550   1.456662   4.076621   3.613561
    12  S    2.794262   4.982415   3.855759   1.466143   1.462492
    13  H    2.739998   5.113914   5.016625   2.895494   4.353428
    14  H    2.589278   4.635217   4.398739   4.181634   4.805916
    15  H    3.385217   5.795908   4.946913   3.653236   4.159367
    16  H    4.566161   7.057765   6.365316   2.814894   4.236128
    17  H    5.530662   7.899568   6.946703   2.985120   4.046936
    18  H    5.750883   8.238214   7.055634   4.020569   4.580718
    19  H    3.740167   2.804252   3.012065   4.796717   4.166682
    20  H    2.956628   2.879702   3.571075   3.487517   3.839188
    21  H    3.141558   3.548271   2.833752   3.315855   2.456803
    22  H    2.087098   4.043626   2.526200   3.537556   2.761744
    23  H    4.775438   6.979656   5.324984   3.267699   2.471591
    24  H    1.021522   2.837534   3.412488   2.702167   3.749832
                   11         12         13         14         15
    11  S    0.000000
    12  S    3.683211   0.000000
    13  H    4.442442   2.981257   0.000000
    14  H    4.116167   3.751743   1.772723   0.000000
    15  H    4.893724   3.008663   1.778396   1.774294   0.000000
    16  H    6.045565   2.905522   2.485975   3.867197   2.507265
    17  H    6.722365   3.115677   4.049335   5.408135   3.967691
    18  H    7.065296   3.630699   3.965682   4.913799   3.197279
    19  H    2.356901   4.716982   6.223236   6.311987   6.828385
    20  H    2.396360   3.871501   4.988238   5.463904   5.944216
    21  H    2.404637   3.107807   5.184108   5.534175   5.626327
    22  H    2.883874   2.401172   3.091444   2.521083   2.495593
    23  H    5.605195   2.225689   4.274452   4.894753   3.450261
    24  H    2.302476   2.935220   2.535646   2.922766   3.676207
                   16         17         18         19         20
    16  H    0.000000
    17  H    1.776575   0.000000
    18  H    1.767958   1.782310   0.000000
    19  H    7.371647   7.579671   8.346854   0.000000
    20  H    6.139154   6.439110   7.355691   1.783477   0.000000
    21  H    5.877502   5.899309   6.709642   1.786483   1.801433
    22  H    4.183020   5.030063   4.756830   4.826663   4.489414
    23  H    2.988705   2.535176   2.441809   6.588148   5.992983
    24  H    4.382717   5.346629   5.791361   3.876719   2.648943
                   21         22         23         24
    21  H    0.000000
    22  H    3.795360   0.000000
    23  H    4.880443   3.496630   0.000000
    24  H    3.293188   2.936101   5.060878   0.000000
 Stoichiometry    C4H12N2O4S2
 Framework group  C1[X(C4H12N2O4S2)]
 Deg. of freedom    66
 Full point group                 C1      NOp   1
 Largest Abelian subgroup         C1      NOp   1
 Largest concise Abelian subgroup C1      NOp   1
                         Standard orientation:                         
 ---------------------------------------------------------------------
 Center     Atomic      Atomic             Coordinates (Angstroms)
 Number     Number       Type             X           Y           Z
 ---------------------------------------------------------------------
      1          6           0       -1.117205    2.210378    0.003886
      2          6           0       -3.914680    0.209159    0.219843
      3          6           0        2.182385   -1.502184    0.756719
      4          6           0       -0.316196    0.958177   -0.361273
      5          7           0       -2.814507   -0.205445   -0.661845
      6          7           0        0.959453    1.018120    0.375685
      7          8           0        3.464282    0.771186    0.496133
      8          8           0        2.207949   -0.109218   -1.526116
      9          8           0       -1.385912   -0.657804    1.450473
     10          8           0       -0.761646   -1.667091   -0.807542
     11         16           0        2.316668    0.082633   -0.086242
     12         16           0       -1.307679   -0.568884   -0.010878
     13          1           0       -1.410101    2.211237    1.060722
     14          1           0       -0.492800    3.089566   -0.176065
     15          1           0       -2.018098    2.292966   -0.608515
     16          1           0       -3.579155    1.010683    0.876486
     17          1           0       -4.306309   -0.609708    0.834103
     18          1           0       -4.722385    0.599117   -0.407770
     19          1           0        3.139373   -2.011628    0.615337
     20          1           0        2.015073   -1.334188    1.822737
     21          1           0        1.379704   -2.094675    0.318368
     22          1           0       -0.088555    0.938648   -1.427462
     23          1           0       -3.052828   -0.914255   -1.348362
     24          1           0        0.774424    0.963777    1.378839
 ---------------------------------------------------------------------
 Rotational constants (GHZ):      1.5163783      0.4516866      0.4137239
 Standard basis: 6-31G(d) (6D, 7F)
 There are   212 symmetry adapted basis functions of A   symmetry.
 Integral buffers will be    131072 words long.
 Raffenetti 2 integral format.
 Two-electron integral symmetry is turned on.
   212 basis functions,   432 primitive gaussians,   212 cartesian basis functions
    57 alpha electrons       57 beta electrons
       nuclear repulsion energy      1114.3675415929 Hartrees.
 NAtoms=   24 NActive=   24 NUniq=   24 SFac= 1.00D+00 NAtFMM=   60 NAOKFM=F Big=F
 One-electron integrals computed using PRISM.
 NBasis=   212 RedAO= T  NBF=   212
 NBsUse=   212 1.00D-06 NBFU=   212
 Initial guess read from the read-write file.
 B after Tr=     0.000000    0.000000    0.000000
         Rot=    1.000000    0.000000    0.000000    0.000000 Ang=   0.00 deg.
 Initial guess orbital symmetries:
       Occupied  (A) (A) (A) (A) (A) (A) (A) (A) (A) (A) (A) (A)
                 (A) (A) (A) (A) (A) (A) (A) (A) (A) (A) (A) (A)
                 (A) (A) (A) (A) (A) (A) (A) (A) (A) (A) (A) (A)
                 (A) (A) (A) (A) (A) (A) (A) (A) (A) (A) (A) (A)
                 (A) (A) (A) (A) (A) (A) (A) (A) (A)
       Virtual   (A) (A) (A) (A) (A) (A) (A) (A) (A) (A) (A) (A)
                 (A) (A) (A) (A) (A) (A) (A) (A) (A) (A) (A) (A)
                 (A) (A) (A) (A) (A) (A) (A) (A) (A) (A) (A) (A)
                 (A) (A) (A) (A) (A) (A) (A) (A) (A) (A) (A) (A)
                 (A) (A) (A) (A) (A) (A) (A) (A) (A) (A) (A) (A)
                 (A) (A) (A) (A) (A) (A) (A) (A) (A) (A) (A) (A)
                 (A) (A) (A) (A) (A) (A) (A) (A) (A) (A) (A) (A)
                 (A) (A) (A) (A) (A) (A) (A) (A) (A) (A) (A) (A)
                 (A) (A) (A) (A) (A) (A) (A) (A) (A) (A) (A) (A)
                 (A) (A) (A) (A) (A) (A) (A) (A) (A) (A) (A) (A)
                 (A) (A) (A) (A) (A) (A) (A) (A) (A) (A) (A) (A)
                 (A) (A) (A) (A) (A) (A) (A) (A) (A) (A) (A) (A)
                 (A) (A) (A) (A) (A) (A) (A) (A) (A) (A) (A)
 Harris functional with IExCor=  402 diagonalized for initial guess.
 ExpMin= 1.17D-01 ExpMax= 2.19D+04 ExpMxC= 3.30D+03 IAcc=3 IRadAn=         5 AccDes= 0.00D+00
 HarFok:  IExCor=  402 AccDes= 0.00D+00 IRadAn=         5 IDoV= 1
 ScaDFX=  1.000000  1.000000  1.000000  1.000000
 FoFCou: FMM=F IPFlag=           0 FMFlag=      100000 FMFlg1=           0
         NFxFlg=           0 DoJE=T BraDBF=F KetDBF=T FulRan=T
         Omega=  0.000000  0.000000  1.000000  0.000000  0.000000 ICntrl=     500 IOpCl=  0
         NMat0=    1 NMatS0=    1 NMatT0=    0 NMatD0=    1 NMtDS0=    0 NMtDT0=    0
         I1Cent=           4 NGrid=           0.
 Petite list used in FoFCou.
 Requested convergence on RMS density matrix=1.00D-08 within 128 cycles.
 Requested convergence on MAX density matrix=1.00D-06.
 Requested convergence on             energy=1.00D-06.
 No special actions if energy rises.
 Integral accuracy reduced to 1.0D-05 until final iterations.
 Initial convergence to 1.0D-05 achieved.  Increase integral accuracy.
 SCF Done:  E(RB3LYP) =  -1366.28857998     A.U. after   14 cycles
             Convg  =    0.8201D-08             -V/T =  2.0060
 Calling FoFJK, ICntrl=      2127 FMM=F ISym2X=0 I1Cent= 0 IOpClX= 0 NMat=1 NMatS=1 NMatT=0.
 ***** Axes restored to original set *****
 -------------------------------------------------------------------
 Center     Atomic                   Forces (Hartrees/Bohr)
 Number     Number              X              Y              Z
 -------------------------------------------------------------------
      1        6          -0.000319996    0.002909225   -0.000856789
      2        6           0.001954583    0.000637456    0.003156511
      3        6           0.002551126   -0.002835865    0.003844158
      4        6          -0.011419686   -0.003891253   -0.012358795
      5        7          -0.000728558    0.001679223   -0.000777519
      6        7           0.015356778    0.011473287    0.014242966
      7        8           0.001768642   -0.001541352   -0.002490658
      8        8          -0.002579668    0.003272462    0.004436445
      9        8           0.007172647   -0.001373177   -0.003746531
     10        8           0.000486780   -0.002386980    0.007159366
     11       16          -0.002807884   -0.001782949   -0.005476730
     12       16          -0.005970120    0.000497367   -0.006277545
     13        1          -0.000720565   -0.001219960    0.000587855
     14        1          -0.000220946   -0.000865512    0.000502620
     15        1          -0.000039815   -0.000462442    0.000275012
     16        1           0.000189935   -0.000487792   -0.000420306
     17        1          -0.000010173   -0.000803822   -0.000701731
     18        1          -0.000795051   -0.000706888    0.000190247
     19        1          -0.001302643    0.000425844   -0.000915071
     20        1          -0.000300174    0.000366716   -0.000418645
     21        1           0.000187358    0.002596470   -0.000669053
     22        1           0.000709400   -0.000803789    0.002588436
     23        1           0.000403004   -0.000451306    0.001450658
     24        1          -0.003564976   -0.004244962   -0.003324901
 -------------------------------------------------------------------
 Cartesian Forces:  Max     0.015356778 RMS     0.004222882

 GradGradGradGradGradGradGradGradGradGradGradGradGradGradGradGradGradGrad
 Berny optimization.
 Using GEDIIS/GDIIS optimizer.
 Internal  Forces:  Max     0.012488297 RMS     0.002589138
 Search for a local minimum.
 Step number   2 out of a maximum of  126
 All quantities printed in internal units (Hartrees-Bohrs-Radians)
 Mixed Optimization -- RFO/linear search
 Update second derivatives using D2CorX and points    1    2
 DE= -1.27D-02 DEPred=-1.36D-02 R= 9.37D-01
 SS=  1.41D+00  RLast= 5.27D-01 DXNew= 5.0454D-01 1.5811D+00
 Trust test= 9.37D-01 RLast= 5.27D-01 DXMaxT set to 5.05D-01
 ITU=  1  0
 Use linear search instead of GDIIS.
     Eigenvalues ---    0.00229   0.00266   0.00387   0.00583   0.00811
     Eigenvalues ---    0.01468   0.01526   0.01929   0.02102   0.03923
     Eigenvalues ---    0.04626   0.05399   0.05469   0.05793   0.05848
     Eigenvalues ---    0.06291   0.07080   0.07660   0.08002   0.08670
     Eigenvalues ---    0.08833   0.09023   0.12666   0.12888   0.13365
     Eigenvalues ---    0.13678   0.14361   0.16000   0.16000   0.16000
     Eigenvalues ---    0.16000   0.16000   0.16000   0.16000   0.16043
     Eigenvalues ---    0.16660   0.17925   0.18256   0.18809   0.22324
     Eigenvalues ---    0.22735   0.23844   0.24389   0.26905   0.27925
     Eigenvalues ---    0.28675   0.29577   0.34145   0.34181   0.34248
     Eigenvalues ---    0.34374   0.34379   0.34442   0.34480   0.34590
     Eigenvalues ---    0.34647   0.35278   0.36177   0.38038   0.39025
     Eigenvalues ---    0.43108   0.43778   0.90717   0.93968   0.94360
     Eigenvalues ---    0.95693
 RFO step:  Lambda=-7.74861745D-03 EMin= 2.28950961D-03
 Quartic linear search produced a step of  0.28636.
 Iteration  1 RMS(Cart)=  0.19303128 RMS(Int)=  0.01116816
 Iteration  2 RMS(Cart)=  0.02056396 RMS(Int)=  0.00049873
 Iteration  3 RMS(Cart)=  0.00026905 RMS(Int)=  0.00048691
 Iteration  4 RMS(Cart)=  0.00000014 RMS(Int)=  0.00048691
 Variable       Old X    -DE/DX   Delta X   Delta X   Delta X     New X
                                 (Linear)    (Quad)   (Total)
    R1        2.89255  -0.00021   0.00110  -0.00123  -0.00013   2.89242
    R2        2.07241  -0.00079   0.00073  -0.00294  -0.00222   2.07019
    R3        2.06598  -0.00012  -0.00139   0.00008  -0.00131   2.06466
    R4        2.06445  -0.00029  -0.00073  -0.00073  -0.00146   2.06299
    R5        2.77709  -0.00074   0.00161  -0.00296  -0.00135   2.77575
    R6        2.05815   0.00046  -0.00168   0.00213   0.00046   2.05861
    R7        2.07115  -0.00002   0.00146  -0.00058   0.00088   2.07204
    R8        2.06867  -0.00051   0.00045  -0.00189  -0.00144   2.06723
    R9        3.40164   0.00132   0.00875   0.00241   0.01116   3.41280
   R10        2.06608  -0.00014   0.00023  -0.00054  -0.00031   2.06576
   R11        2.06371   0.00002   0.00034  -0.00004   0.00030   2.06400
   R12        2.05928   0.00076   0.00206   0.00178   0.00384   2.06311
   R13        2.78629  -0.01249  -0.02504  -0.03893  -0.06397   2.72233
   R14        3.50376   0.00221   0.00100   0.01097   0.01197   3.51573
   R15        2.06055   0.00078  -0.00295   0.00370   0.00074   2.06129
   R16        3.17698   0.00071  -0.00086   0.00247   0.00161   3.17858
   R17        1.91834   0.00138  -0.00585   0.00576  -0.00009   1.91825
   R18        3.23499  -0.00016   0.01610  -0.00613   0.00998   3.24497
   R19        1.93040  -0.00033  -0.00341   0.00029  -0.00313   1.92727
   R20        2.75815   0.00213   0.00322   0.00158   0.00480   2.76295
   R21        2.75269   0.00585   0.00358   0.00600   0.00958   2.76227
   R22        2.77061   0.00803   0.00629   0.00798   0.01427   2.78488
   R23        2.76371   0.00699   0.00433   0.00733   0.01165   2.77536
    A1        1.95013  -0.00140   0.00278  -0.01156  -0.00884   1.94129
    A2        1.89625  -0.00121  -0.01067  -0.00573  -0.01651   1.87973
    A3        1.93870   0.00000  -0.00254   0.00276   0.00019   1.93889
    A4        1.88654   0.00091   0.00259   0.00195   0.00440   1.89094
    A5        1.89643   0.00101   0.00213   0.00854   0.01069   1.90711
    A6        1.89433   0.00077   0.00613   0.00442   0.01047   1.90480
    A7        1.91635  -0.00014  -0.00941   0.00146  -0.00797   1.90837
    A8        1.97465   0.00002   0.01480  -0.00569   0.00912   1.98377
    A9        1.88483  -0.00108  -0.00368  -0.00506  -0.00888   1.87595
   A10        1.89866  -0.00036  -0.00628  -0.00237  -0.00853   1.89013
   A11        1.88684   0.00059   0.00054   0.00437   0.00472   1.89156
   A12        1.90056   0.00101   0.00394   0.00783   0.01167   1.91224
   A13        1.85916  -0.00166  -0.00422  -0.00769  -0.01195   1.84721
   A14        1.91040  -0.00039   0.00293  -0.00599  -0.00313   1.90727
   A15        1.92332  -0.00228  -0.00242  -0.01577  -0.01829   1.90503
   A16        1.90923   0.00104   0.00020   0.00818   0.00837   1.91760
   A17        1.91705   0.00236   0.00413   0.01942   0.02347   1.94052
   A18        1.94277   0.00084  -0.00074   0.00156   0.00071   1.94348
   A19        1.87575   0.00418   0.00674   0.02687   0.03378   1.90953
   A20        1.92714   0.00406  -0.00049   0.02631   0.02634   1.95348
   A21        1.93603  -0.00166   0.01420   0.01043   0.02412   1.96015
   A22        1.98414  -0.00906  -0.01689  -0.06705  -0.08427   1.89987
   A23        1.88476   0.00147  -0.00401   0.00728   0.00113   1.88589
   A24        1.85634   0.00081   0.00183  -0.00408  -0.00386   1.85247
   A25        2.09402  -0.00007   0.00798  -0.00957  -0.00196   2.09205
   A26        2.01194  -0.00059   0.00026  -0.01601  -0.01625   1.99569
   A27        1.89793  -0.00026  -0.01278  -0.00942  -0.02268   1.87526
   A28        2.12803  -0.00484   0.02326  -0.02478  -0.00327   2.12477
   A29        1.90918   0.00522  -0.00302   0.05295   0.04787   1.95705
   A30        1.96007  -0.00026   0.00941   0.00482   0.01211   1.97218
   A31        1.87089  -0.00054   0.01197  -0.01338  -0.00144   1.86946
   A32        1.86204   0.00029  -0.00420   0.00749   0.00328   1.86532
   A33        1.91917  -0.00096  -0.00226  -0.00847  -0.01077   1.90840
   A34        1.83166   0.00026  -0.00078   0.00364   0.00289   1.83455
   A35        1.85410  -0.00094  -0.00986  -0.01023  -0.02017   1.83392
   A36        2.11207   0.00170   0.00653   0.01744   0.02397   2.13604
   A37        1.80089   0.00760  -0.01180   0.04636   0.03457   1.83546
   A38        1.84092  -0.00033  -0.01973   0.01905  -0.00061   1.84031
   A39        1.89216   0.00045  -0.00369   0.01184   0.00851   1.90067
   A40        1.92968  -0.00214   0.01248  -0.01649  -0.00507   1.92461
   A41        1.86089  -0.00438   0.01097  -0.03608  -0.02572   1.83517
   A42        2.11453   0.00039   0.00929  -0.01210  -0.00393   2.11060
    D1       -1.15016   0.00346   0.01125   0.03997   0.05137  -1.09879
    D2        1.02290  -0.00241  -0.00554  -0.00864  -0.01435   1.00855
    D3        3.07633   0.00011   0.00485   0.00927   0.01400   3.09033
    D4        0.92967   0.00296   0.00926   0.03164   0.04112   0.97079
    D5        3.10272  -0.00292  -0.00753  -0.01697  -0.02459   3.07813
    D6       -1.12703  -0.00040   0.00287   0.00095   0.00375  -1.12327
    D7        3.01217   0.00314   0.00836   0.03512   0.04370   3.05587
    D8       -1.09796  -0.00274  -0.00843  -0.01349  -0.02201  -1.11997
    D9        0.95548  -0.00022   0.00196   0.00443   0.00633   0.96181
   D10        0.87930   0.00054   0.00843   0.02656   0.03481   0.91412
   D11       -3.08175  -0.00070  -0.00287  -0.02007  -0.02302  -3.10477
   D12       -1.24543   0.00109   0.01283   0.03247   0.04534  -1.20009
   D13        1.07670  -0.00015   0.00153  -0.01416  -0.01249   1.06421
   D14        2.93288   0.00055   0.00137   0.02969   0.03104   2.96392
   D15       -1.02818  -0.00069  -0.00993  -0.01694  -0.02678  -1.05496
   D16       -2.95179  -0.00082  -0.00495  -0.02888  -0.03377  -2.98557
   D17       -0.99702  -0.00063  -0.00231  -0.02732  -0.02963  -1.02665
   D18        1.32308   0.00108   0.00121  -0.00517  -0.00396   1.31912
   D19       -0.88934  -0.00072  -0.00551  -0.02664  -0.03215  -0.92149
   D20        1.06543  -0.00054  -0.00287  -0.02509  -0.02800   1.03743
   D21       -2.89765   0.00118   0.00065  -0.00293  -0.00234  -2.89999
   D22        1.25272  -0.00142  -0.00606  -0.03902  -0.04504   1.20768
   D23       -3.07569  -0.00124  -0.00342  -0.03747  -0.04090  -3.11659
   D24       -0.75559   0.00048   0.00010  -0.01531  -0.01523  -0.77082
   D25       -2.81791   0.00228   0.04992   0.15188   0.20182  -2.61609
   D26        1.12838   0.00167   0.01671   0.10738   0.12361   1.25200
   D27        1.32710   0.00001   0.05674   0.14280   0.20035   1.52744
   D28       -1.00979  -0.00060   0.02353   0.09831   0.12214  -0.88765
   D29       -0.72825   0.00343   0.06814   0.18311   0.25118  -0.47707
   D30       -3.06514   0.00282   0.03493   0.13861   0.17297  -2.89217
   D31        0.80405   0.00094   0.01434   0.08901   0.10352   0.90757
   D32       -1.22141   0.00024   0.01441   0.08018   0.09446  -1.12695
   D33        2.77290  -0.00032   0.01967   0.07439   0.09414   2.86704
   D34        2.91366   0.00303   0.01064   0.09645   0.10686   3.02051
   D35        0.88819   0.00233   0.01071   0.08762   0.09780   0.98599
   D36       -1.40068   0.00177   0.01598   0.08183   0.09747  -1.30321
   D37       -1.29782   0.00018  -0.00343   0.06420   0.06124  -1.23658
   D38        2.95990  -0.00052  -0.00336   0.05537   0.05218   3.01208
   D39        0.67102  -0.00108   0.00191   0.04958   0.05186   0.72288
   D40       -1.77060  -0.00166  -0.00285  -0.06878  -0.07160  -1.84220
   D41        0.19063   0.00091  -0.02593  -0.03044  -0.05685   0.13378
   D42        2.52100  -0.00374   0.00178  -0.08791  -0.08542   2.43557
   D43        2.14335  -0.00035   0.00307  -0.02209  -0.01916   2.12418
   D44       -2.17861   0.00222  -0.02001   0.01624  -0.00442  -2.18302
   D45        0.15176  -0.00242   0.00769  -0.04123  -0.03299   0.11877
   D46       -1.54291   0.00104   0.00157   0.05404   0.05543  -1.48748
   D47        2.76481   0.00082   0.00164   0.04960   0.05104   2.81585
   D48        0.50843  -0.00080   0.00015   0.03258   0.03255   0.54098
   D49        0.77341   0.00378   0.02993   0.11845   0.14859   0.92200
   D50       -1.20205   0.00356   0.03001   0.11400   0.14419  -1.05786
   D51        2.82476   0.00193   0.02852   0.09698   0.12570   2.95046
         Item               Value     Threshold  Converged?
 Maximum Force            0.012488     0.000450     NO 
 RMS     Force            0.002589     0.000300     NO 
 Maximum Displacement     0.635693     0.001800     NO 
 RMS     Displacement     0.202542     0.001200     NO 
 Predicted change in Energy=-5.372244D-03
 GradGradGradGradGradGradGradGradGradGradGradGradGradGradGradGradGradGrad

                          Input orientation:                          
 ---------------------------------------------------------------------
 Center     Atomic      Atomic             Coordinates (Angstroms)
 Number     Number       Type             X           Y           Z
 ---------------------------------------------------------------------
      1          6           0       -0.113845    1.410536   -1.894065
      2          6           0        2.583356    2.692265    0.220577
      3          6           0        0.228999   -3.219969    0.093630
      4          6           0       -0.120551    0.255178   -0.890148
      5          7           0        1.574116    1.775315    0.766646
      6          7           0       -0.235975   -0.993878   -1.598557
      7          8           0       -1.328616   -3.233569   -2.029080
      8          8           0       -2.037563   -1.807099   -0.022494
      9          8           0        2.523576   -0.052605   -0.806864
     10          8           0        1.204836   -0.643278    1.306327
     11         16           0       -1.008580   -2.359766   -0.901362
     12         16           0        1.428160    0.221131    0.140189
     13          1           0        0.755500    1.353847   -2.558250
     14          1           0       -1.017452    1.327137   -2.502551
     15          1           0       -0.114381    2.375141   -1.382873
     16          1           0        2.475309    2.744352   -0.862169
     17          1           0        3.614614    2.398688    0.449870
     18          1           0        2.384257    3.684801    0.635205
     19          1           0       -0.232948   -4.164323    0.393272
     20          1           0        1.111468   -3.416375   -0.519253
     21          1           0        0.477164   -2.608677    0.963493
     22          1           0       -0.951365    0.322802   -0.186591
     23          1           0        1.584907    1.695756    1.778559
     24          1           0        0.620250   -1.232512   -2.098617
 ---------------------------------------------------------------------
                    Distance matrix (angstroms):
                    1          2          3          4          5
     1  C    0.000000
     2  C    3.659158   0.000000
     3  C    5.050748   6.365032   0.000000
     4  C    1.530603   3.805814   3.628588   0.000000
     5  N    3.172012   1.468861   5.216815   2.815614   0.000000
     6  N    2.425582   4.984529   2.834639   1.440593   4.066822
     7  O    4.802251   7.448490   2.632916   3.863670   6.428908
     8  O    4.190065   6.454166   2.673385   2.946311   5.147879
     9  O    3.206053   2.931471   4.013498   2.663283   2.592045
    10  O    4.024871   3.768955   3.010353   2.718157   2.505438
    11  S    4.000148   6.299505   1.805979   2.761639   5.152811
    12  S    2.816141   2.729000   3.644356   1.860446   1.682034
    13  H    1.095499   3.585289   5.313141   2.181079   3.450029
    14  H    1.092573   4.716441   5.382376   2.133863   4.195800
    15  H    1.091686   3.154268   5.796829   2.176478   2.798436
    16  H    3.089918   1.089370   6.444578   3.596562   2.098623
    17  H    4.513522   1.096474   6.569521   4.510182   2.156982
    18  H    4.220190   1.093931   7.253571   4.512547   2.078399
    19  H    6.027035   7.414458   1.093153   4.603454   6.219661
    20  H    5.166292   6.326870   1.092224   3.890467   5.368540
    21  H    4.966791   5.752214   1.091753   3.463368   4.523433
    22  H    2.190907   4.274856   3.744731   1.090788   3.065373
    23  H    4.056510   2.101723   5.370459   3.479346   1.015093
    24  H    2.750717   4.963499   2.984797   2.054850   4.262232
                    6          7          8          9         10
     6  N    0.000000
     7  O    2.528919   0.000000
     8  O    2.528047   2.561994   0.000000
     9  O    3.021240   5.143124   4.949492   0.000000
    10  O    3.261473   4.924726   3.692342   2.559990   0.000000
    11  S    1.717163   1.462089   1.461730   4.219958   3.566431
    12  S    2.696077   4.923464   4.018883   1.473695   1.468658
    13  H    2.723206   5.066355   4.921671   2.858593   4.373257
    14  H    2.610560   4.595764   4.124894   4.161481   4.829975
    15  H    3.378105   5.774909   4.800041   3.631054   4.252409
    16  H    4.676291   7.181022   6.464269   2.797921   4.218118
    17  H    5.525631   7.893228   7.061082   2.962868   3.974181
    18  H    5.809075   8.291423   7.081386   4.008389   4.535826
    19  H    3.744210   2.816839   2.997665   5.093621   3.911348
    20  H    2.974725   2.875240   3.571125   3.659469   3.321374
    21  H    3.111309   3.550609   2.817543   3.722294   2.123637
    22  H    2.058902   4.023042   2.396504   3.549773   2.794874
    23  H    4.685579   6.876408   5.351268   3.259184   2.416307
    24  H    1.019867   2.794127   3.421171   2.585238   3.504652
                   11         12         13         14         15
    11  S    0.000000
    12  S    3.699129   0.000000
    13  H    4.432627   3.002847   0.000000
    14  H    4.019594   3.766741   1.774029   0.000000
    15  H    4.842601   3.055962   1.783605   1.779755   0.000000
    16  H    6.179890   2.909963   2.787102   4.110807   2.667198
    17  H    6.770719   3.101328   4.279604   5.596521   4.155106
    18  H    7.099942   3.627144   4.276021   5.193815   3.468579
    19  H    2.352468   4.696332   6.335512   6.257585   6.777413
    20  H    2.399382   3.710338   5.199927   5.564771   5.982491
    21  H    2.397306   3.096779   5.308649   5.453254   5.540199
    22  H    2.776750   2.404010   3.098582   2.525218   2.518675
    23  H    5.509574   2.209829   4.428627   5.023550   3.652916
    24  H    2.314564   2.788916   2.630363   3.065459   3.750617
                   16         17         18         19         20
    16  H    0.000000
    17  H    1.771707   0.000000
    18  H    1.770555   1.789473   0.000000
    19  H    7.525994   7.607894   8.277502   0.000000
    20  H    6.319194   6.404678   7.306125   1.788738   0.000000
    21  H    5.998379   5.931367   6.584273   1.802621   1.803678
    22  H    4.249989   5.055942   4.806741   4.581120   4.283386
    23  H    2.977552   2.525716   2.429510   6.290003   5.624764
    24  H    4.559112   5.352254   5.896226   3.941189   2.739515
                   21         22         23         24
    21  H    0.000000
    22  H    3.457884   0.000000
    23  H    4.518803   3.489913   0.000000
    24  H    3.360182   2.923153   4.953566   0.000000
 Stoichiometry    C4H12N2O4S2
 Framework group  C1[X(C4H12N2O4S2)]
 Deg. of freedom    66
 Full point group                 C1      NOp   1
 Largest Abelian subgroup         C1      NOp   1
 Largest concise Abelian subgroup C1      NOp   1
                         Standard orientation:                         
 ---------------------------------------------------------------------
 Center     Atomic      Atomic             Coordinates (Angstroms)
 Number     Number       Type             X           Y           Z
 ---------------------------------------------------------------------
      1          6           0       -1.006810    2.280640   -0.012688
      2          6           0       -3.970113    0.134159    0.017035
      3          6           0        2.125764   -1.662695    0.370893
      4          6           0       -0.272661    0.972223   -0.315701
      5          7           0       -2.772298   -0.252211   -0.740269
      6          7           0        0.933291    0.907020    0.469623
      7          8           0        3.430641    0.597300    0.720124
      8          8           0        2.292949    0.198854   -1.540564
      9          8           0       -1.532940   -0.483218    1.524533
     10          8           0       -0.729279   -1.693937   -0.583034
     11         16           0        2.328275    0.073104   -0.084681
     12         16           0       -1.320368   -0.516866    0.066638
     13          1           0       -1.321445    2.325317    1.035704
     14          1           0       -0.311231    3.102502   -0.198245
     15          1           0       -1.880535    2.399009   -0.656405
     16          1           0       -3.738945    0.995046    0.643264
     17          1           0       -4.360956   -0.663805    0.659491
     18          1           0       -4.735378    0.429647   -0.706666
     19          1           0        3.085230   -2.141060    0.157403
     20          1           0        1.905779   -1.732026    1.438485
     21          1           0        1.325037   -2.099387   -0.229159
     22          1           0        0.003765    0.886517   -1.367395
     23          1           0       -2.912715   -1.030134   -1.377084
     24          1           0        0.739891    0.746938    1.458106
 ---------------------------------------------------------------------
 Rotational constants (GHZ):      1.5105043      0.4500839      0.4109448
 Standard basis: 6-31G(d) (6D, 7F)
 There are   212 symmetry adapted basis functions of A   symmetry.
 Integral buffers will be    131072 words long.
 Raffenetti 2 integral format.
 Two-electron integral symmetry is turned on.
   212 basis functions,   432 primitive gaussians,   212 cartesian basis functions
    57 alpha electrons       57 beta electrons
       nuclear repulsion energy      1113.6128603409 Hartrees.
 NAtoms=   24 NActive=   24 NUniq=   24 SFac= 1.00D+00 NAtFMM=   60 NAOKFM=F Big=F
 One-electron integrals computed using PRISM.
 NBasis=   212 RedAO= T  NBF=   212
 NBsUse=   212 1.00D-06 NBFU=   212
 Initial guess read from the read-write file.
 B after Tr=     0.000000    0.000000    0.000000
         Rot=    1.000000    0.000000    0.000000    0.000000 Ang=   0.00 deg.
 Initial guess orbital symmetries:
       Occupied  (A) (A) (A) (A) (A) (A) (A) (A) (A) (A) (A) (A)
                 (A) (A) (A) (A) (A) (A) (A) (A) (A) (A) (A) (A)
                 (A) (A) (A) (A) (A) (A) (A) (A) (A) (A) (A) (A)
                 (A) (A) (A) (A) (A) (A) (A) (A) (A) (A) (A) (A)
                 (A) (A) (A) (A) (A) (A) (A) (A) (A)
       Virtual   (A) (A) (A) (A) (A) (A) (A) (A) (A) (A) (A) (A)
                 (A) (A) (A) (A) (A) (A) (A) (A) (A) (A) (A) (A)
                 (A) (A) (A) (A) (A) (A) (A) (A) (A) (A) (A) (A)
                 (A) (A) (A) (A) (A) (A) (A) (A) (A) (A) (A) (A)
                 (A) (A) (A) (A) (A) (A) (A) (A) (A) (A) (A) (A)
                 (A) (A) (A) (A) (A) (A) (A) (A) (A) (A) (A) (A)
                 (A) (A) (A) (A) (A) (A) (A) (A) (A) (A) (A) (A)
                 (A) (A) (A) (A) (A) (A) (A) (A) (A) (A) (A) (A)
                 (A) (A) (A) (A) (A) (A) (A) (A) (A) (A) (A) (A)
                 (A) (A) (A) (A) (A) (A) (A) (A) (A) (A) (A) (A)
                 (A) (A) (A) (A) (A) (A) (A) (A) (A) (A) (A) (A)
                 (A) (A) (A) (A) (A) (A) (A) (A) (A) (A) (A) (A)
                 (A) (A) (A) (A) (A) (A) (A) (A) (A) (A) (A)
 Harris functional with IExCor=  402 diagonalized for initial guess.
 ExpMin= 1.17D-01 ExpMax= 2.19D+04 ExpMxC= 3.30D+03 IAcc=3 IRadAn=         5 AccDes= 0.00D+00
 HarFok:  IExCor=  402 AccDes= 0.00D+00 IRadAn=         5 IDoV= 1
 ScaDFX=  1.000000  1.000000  1.000000  1.000000
 FoFCou: FMM=F IPFlag=           0 FMFlag=      100000 FMFlg1=           0
         NFxFlg=           0 DoJE=T BraDBF=F KetDBF=T FulRan=T
         Omega=  0.000000  0.000000  1.000000  0.000000  0.000000 ICntrl=     500 IOpCl=  0
         NMat0=    1 NMatS0=    1 NMatT0=    0 NMatD0=    1 NMtDS0=    0 NMtDT0=    0
         I1Cent=           4 NGrid=           0.
 Petite list used in FoFCou.
 Requested convergence on RMS density matrix=1.00D-08 within 128 cycles.
 Requested convergence on MAX density matrix=1.00D-06.
 Requested convergence on             energy=1.00D-06.
 No special actions if energy rises.
 Integral accuracy reduced to 1.0D-05 until final iterations.
 Initial convergence to 1.0D-05 achieved.  Increase integral accuracy.
 SCF Done:  E(RB3LYP) =  -1366.29225229     A.U. after   15 cycles
             Convg  =    0.5581D-08             -V/T =  2.0060
 Calling FoFJK, ICntrl=      2127 FMM=F ISym2X=0 I1Cent= 0 IOpClX= 0 NMat=1 NMatS=1 NMatT=0.
 ***** Axes restored to original set *****
 -------------------------------------------------------------------
 Center     Atomic                   Forces (Hartrees/Bohr)
 Number     Number              X              Y              Z
 -------------------------------------------------------------------
      1        6           0.001223728    0.000284054    0.002698927
      2        6           0.000649060   -0.000062820   -0.000078922
      3        6          -0.002848360   -0.001929212    0.003579961
      4        6          -0.003936387    0.000977484   -0.001578064
      5        7          -0.001085020    0.002724630   -0.000869957
      6        7           0.004781740   -0.006223557    0.003765878
      7        8           0.000126876    0.001694040    0.000745429
      8        8          -0.001877666   -0.000050895    0.000634578
      9        8          -0.000297296   -0.000265072    0.000355225
     10        8          -0.000356128   -0.000392348    0.002855456
     11       16           0.003942161    0.000027802   -0.004255376
     12       16           0.003485875    0.005278350   -0.003189721
     13        1          -0.000279852   -0.000427193    0.000558861
     14        1          -0.000446973    0.000279835    0.000107902
     15        1           0.000323652    0.001023228    0.000313956
     16        1          -0.000086483    0.000451635   -0.001072852
     17        1          -0.000572219   -0.000480718    0.000355630
     18        1           0.000341133   -0.000191366   -0.000151968
     19        1          -0.000165441   -0.000235449   -0.000631578
[...]
 -0.00034793,-0.00002690,-0.00007391,0.00009375,0.00155191,0.00030889,0
 .00112594,-0.00000678,-0.00003907,-0.00005244,0.00000804,0.00020588,-0
 .00001766,-0.00032322,0.00013487,0.00008033,0.05528869,0.00006976,-0.0
 0005181,0.00007773,0.00185973,-0.05294729,0.03182876,0.00002025,0.0000
 1533,-0.00001220,-0.00009320,-0.00010163,-0.00020763,-0.00495000,-0.00
 789690,0.02773907,0.00013551,0.00020726,-0.00004613,0.00005113,0.00007
 948,0.00000562,0.00006535,0.00003984,-0.00006786,0.00090431,0.00063683
 ,-0.00185407,0.00027316,-0.00046707,-0.00117882,-0.00018883,-0.0002292
 5,0.00015626,-0.00176235,0.00006717,0.00569798,-0.00007969,-0.00010767
 ,-0.00018897,0.00006684,0.00007771,-0.00000774,-0.00017619,0.00011828,
 0.00004116,0.00644625,0.05888179,-0.00007454,0.00014976,0.00003129,-0.
 00653101,0.04050456,-0.32285360,0.00000530,0.00000174,-0.00000357,-0.0
 0022492,0.00002878,-0.00001884,0.00352293,0.00389989,-0.00399274,0.000
 00908,0.00011589,0.00013847,0.00001469,0.00002106,0.00002014,0.0000161
 1,0.00000575,0.00001135,-0.00093040,-0.00172324,0.00058165,-0.00007869
 ,0.00055244,0.00055821,-0.00005053,-0.00005734,-0.00000662,0.00131606,
 -0.00193767,-0.00243028,-0.00005875,-0.00004265,0.00000559,-0.00001495
 ,-0.00009197,-0.00000801,0.00012817,-0.00001589,0.00002077,0.00434446,
 -0.04374564,0.34631451,-0.00003395,-0.00005307,-0.00001257,-0.27146376
 ,0.06075328,-0.07197658,-0.00003671,-0.00004335,0.00003386,0.00079196,
 -0.00033026,0.00018416,-0.02098908,-0.01193012,-0.00227989,-0.00037183
 ,-0.00055116,-0.00031279,-0.00009953,-0.00020735,-0.00006446,-0.000094
 58,-0.00013039,0.00004977,0.00176570,0.00022844,-0.00106396,0.00010897
 ,-0.00099487,-0.00008838,0.00031688,0.00055322,-0.00019399,-0.00327402
 ,0.00594307,0.00419482,-0.00000674,-0.00003019,-0.00004908,-0.00000924
 ,0.00001797,-0.00004896,0.00000357,-0.00005895,0.00013212,0.00127581,0
 .00122347,-0.00041766,0.29932510,0.00002356,-0.00008586,-0.00001736,0.
 06379029,-0.06803299,0.01923946,-0.00001000,-0.00001353,0.00000745,0.0
 0068664,-0.00070942,-0.00000612,-0.03235574,-0.00385492,-0.00693665,-0
 .00029296,-0.00044084,-0.00040092,-0.00006031,-0.00013214,-0.00002122,
 -0.00004284,-0.00006741,0.00003000,0.00137575,-0.00004823,-0.00033724,
 0.00041046,0.00008356,0.00014204,0.00013485,0.00030898,-0.00017121,-0.
 00542231,0.00539382,0.00201659,-0.00001181,-0.00001371,-0.00006357,0.0
 0000332,0.00003837,-0.00003156,-0.00005370,-0.00006690,0.00009585,0.00
 392419,-0.00060464,-0.00002611,-0.05769020,0.07259281,-0.00001534,0.00
 017260,0.00007825,-0.07144425,0.01824138,-0.07811606,0.00000252,0.0000
 0276,0.00000005,-0.00005747,0.00003201,-0.00031359,0.01021651,0.000015
 97,0.00547172,0.00007070,0.00003334,0.00011131,0.00002136,0.00002612,0
 .00000911,0.00002859,0.00001267,-0.00001397,0.00093910,0.00064511,0.00
 024398,0.00009579,-0.00001746,-0.00040866,-0.00006249,-0.00008035,0.00
 003392,-0.00129244,-0.00108438,0.00046908,-0.00001820,0.00005920,0.000
 04521,-0.00001952,-0.00010045,0.00001416,0.00018639,-0.00001136,-0.000
 04801,-0.03089927,0.00894503,-0.00802386,0.07590274,-0.02242417,0.0741
 2817,-0.00020909,-0.00015115,-0.00005505,-0.07981451,0.07741079,0.0417
 7101,-0.00003435,-0.00001876,0.00004497,0.00078537,-0.00008509,-0.0001
 1450,0.00376966,-0.02517149,-0.01351842,-0.00029109,-0.00036172,-0.000
 15374,-0.00007252,-0.00009358,-0.00004366,-0.00008202,0.00000057,0.000
 04589,0.00151989,0.00112937,-0.00069341,0.00025826,-0.00221317,0.00009
 736,0.00024365,0.00019300,-0.00011101,-0.00368684,-0.00198490,0.003272
 20,0.00000259,0.00001235,-0.00000512,-0.00000889,0.00006236,-0.0000722
 7,-0.00000143,0.00000519,-0.00002084,-0.00020646,-0.00135199,-0.001153
 71,-0.00736366,0.02460700,0.01524015,0.08434776,-0.00025177,-0.0001221
 1,-0.00009036,0.07330925,-0.23064234,-0.10143457,-0.00005405,-0.000037
 89,0.00005790,0.00072711,0.00014706,0.00016219,-0.00162396,-0.02642274
 ,-0.01216447,-0.00032643,-0.00045978,-0.00014510,-0.00011366,-0.000145
 60,-0.00006782,-0.00014267,-0.00003695,0.00007777,0.00045158,0.0004226
 8,-0.00067856,0.00010919,-0.00224706,0.00026247,0.00041562,0.00037254,
 -0.00015862,-0.00209361,0.00106777,0.00401226,0.00001995,0.00000394,0.
 00000386,-0.00001498,0.00005298,-0.00009294,0.00002033,-0.00003275,0.0
 0002511,-0.00194204,0.00678050,0.00194339,0.00349492,-0.00500383,-0.00
 370148,-0.07250107,0.25634332,-0.00005606,-0.00000361,-0.00010222,0.03
 765552,-0.10494571,-0.10872816,-0.00000062,0.00000085,-0.00000658,-0.0
 0014486,0.00000763,0.00015511,-0.00022204,0.00975287,0.00509340,-0.000
 05117,0.00002997,-0.00001236,-0.00001642,-0.00002105,-0.00001495,-0.00
 002307,-0.00001763,0.00000146,-0.00093895,-0.00147696,0.00074520,-0.00
 018266,0.00091148,0.00020558,0.00004645,0.00005799,0.00000164,0.001920
 47,0.00206262,-0.00164164,0.00002371,0.00005906,0.00007936,-0.00003723
 ,-0.00005004,0.00000664,0.00006796,-0.00012189,-0.00004352,0.01056459,
 -0.02775500,-0.01180796,-0.00344939,0.00977587,0.00555675,-0.04464509,
 0.11182437,0.11030882,0.00017051,0.00043159,0.00032354,0.00003029,-0.0
 0001878,-0.00000408,-0.14801648,-0.11254621,0.07490229,-0.00044409,-0.
 00038575,-0.00129862,0.00010727,-0.00013422,0.00016814,0.00088623,0.00
 358665,-0.00238730,-0.00096661,-0.00097430,0.00074207,-0.00051480,-0.0
 0145965,0.00041734,0.00018399,-0.00011995,0.00014314,-0.00003413,-0.00
 099610,0.00039113,0.01102933,0.01280834,-0.00805843,-0.00053719,0.0006
 9008,-0.00088069,-0.00001477,-0.00003608,0.00000315,0.00002032,-0.0000
 5035,0.00003852,-0.00001322,0.00014634,-0.00011569,-0.00001182,-0.0000
 0450,0.00000146,0.00000386,0.00000866,0.00000269,-0.00000826,-0.000011
 12,0.00000182,0.15577328,-0.00004984,-0.00037313,-0.00029362,0.0000579
 1,0.00002437,-0.00004838,-0.11233395,-0.17304112,0.08210908,0.00033684
 ,0.00042660,0.00099597,-0.00006182,-0.00023649,-0.00006881,0.00024434,
 -0.00196739,0.00255123,0.00107737,0.00127509,-0.00057310,0.00157995,0.
 00166690,-0.00181803,-0.00016296,-0.00003751,0.00002810,-0.00028393,-0
 .00037310,-0.00010990,-0.01271011,-0.01272607,0.00731426,0.00035077,0.
 00038234,0.00003819,0.00000998,0.00004050,-0.00001589,-0.00001299,0.00
 003342,-0.00000362,-0.00000362,-0.00011875,0.00009209,0.00000397,0.000
 00877,0.00000125,-0.00001888,-0.00000633,0.00000156,-0.00001614,-0.000
 02416,0.00000146,0.12060805,0.18242329,0.00015062,0.00043018,0.0003550
 2,0.00002991,-0.00002087,-0.00000536,0.07492444,0.08217407,-0.10354963
 ,-0.00067212,-0.00044140,-0.00134801,0.00009230,-0.00015003,0.00018048
 ,-0.00037937,0.00316655,-0.00066379,-0.00182182,-0.00204100,0.00020125
 ,-0.00064887,-0.00166876,0.00069264,0.00012985,-0.00006878,0.00018290,
 -0.00024664,-0.00111014,0.00040120,0.01171649,0.01161241,-0.00820112,-
 0.00032979,0.00062915,-0.00098681,-0.00000896,-0.00003522,0.00000414,0
 .00001452,-0.00004673,0.00003491,-0.00000668,0.00012704,-0.00012384,-0
 .00000914,-0.00000523,0.00000131,0.00000282,0.00000723,0.00000130,-0.0
 0001104,-0.00001134,0.00000422,-0.08011488,-0.09169040,0.10626851,-0.0
 0000316,-0.00008538,-0.00007692,0.00000721,0.00000349,-0.00000360,-0.1
 6753962,0.08159868,0.11267039,0.00017270,0.00006099,0.00029522,0.00000
 699,-0.00002080,0.00001653,0.00071500,-0.00110741,-0.00132386,0.002342
 15,-0.00183068,-0.00125553,-0.00205087,0.00358413,-0.00204178,-0.00005
 441,0.00002827,0.00010580,-0.00023335,-0.00009746,0.00018704,-0.013138
 16,0.00774482,0.01332562,0.00007728,0.00005549,-0.00028891,0.00000342,
 0.00000696,-0.00000064,-0.00000561,0.00000036,0.00001663,-0.00000788,-
 0.00001799,0.00003122,0.00000010,-0.00000143,0.00000104,-0.00000237,-0
 .00000219,-0.00000136,-0.00000338,-0.00000122,0.00000077,-0.01022700,0
 .00882318,0.00894578,0.17678103,-0.00000722,0.00012155,0.00007418,-0.0
 0002540,-0.00000439,0.00002052,0.08248764,-0.10591803,-0.07856201,-0.0
 0014332,-0.00015906,-0.00034206,-0.00003277,0.00014935,0.00005181,-0.0
 0194012,0.00138842,0.00142210,-0.00238739,0.00105832,0.00078618,0.0042
 5061,-0.00226124,0.00215516,-0.00012616,0.00016247,0.00012152,-0.00033
 846,0.00023282,0.00020933,0.01197693,-0.00956169,-0.01405849,0.0003556
 6,-0.00053061,-0.00016159,0.00000280,-0.00002576,0.00001826,0.00000138
 ,0.00000153,-0.00001843,0.00001454,0.00002831,-0.00002996,0.00000352,-
 0.00000753,-0.00000013,0.00000219,-0.00000299,-0.00000448,0.00000694,0
 .00001494,0.00000234,-0.01513153,0.01305036,0.01296091,-0.09133978,0.1
 0938692,-0.00000106,-0.00008895,-0.00005386,0.00001151,0.00001074,0.00
 000238,0.11506478,-0.08008412,-0.15335164,0.00006086,-0.00024050,0.000
 16354,0.00003652,-0.00002660,0.00003010,0.00033278,-0.00097437,-0.0009
 1547,0.00142466,-0.00021364,-0.00037923,-0.00484026,0.00452962,-0.0003
 9106,-0.00000169,-0.00001343,0.00007397,-0.00030438,-0.00021078,0.0002
 5459,-0.01312759,0.00853829,0.01118369,-0.00006348,0.00009261,-0.00029
 260,0.00000323,0.00001028,-0.00000136,-0.00000192,-0.00000231,0.000016
 81,-0.00000477,-0.00001748,0.00002231,-0.00000248,-0.00000136,0.000001
 04,-0.00000294,-0.00000082,-0.00000048,-0.00000239,-0.00000114,-0.0000
 0038,0.00733526,-0.00759086,-0.00736690,-0.12148386,0.08351005,0.16135
 566,-0.00021277,-0.00011938,-0.00006962,-0.00014390,0.00000614,0.00006
 769,-0.11201054,-0.07788804,-0.08868931,0.00051549,0.00060665,0.000038
 17,-0.00011391,0.00045415,-0.00029700,-0.00023147,0.00013196,0.0016238
 0,-0.00099743,0.00157857,-0.00290437,0.00141871,0.00096049,0.00206876,
 -0.00010441,0.00022107,-0.00023139,-0.00125225,0.00033565,-0.00118246,
 -0.00943976,-0.01002751,-0.01308173,0.00039265,-0.00135788,0.00167966,
 0.00002361,-0.00000714,0.00002993,-0.00001529,0.00004176,-0.00005879,0
 .00001693,-0.00003967,0.00002554,0.00001119,-0.00000519,-0.00000562,0.
 00001171,-0.00001237,-0.00000747,0.00003684,0.00004978,-0.00000671,-0.
 00718754,-0.00778338,-0.01179148,0.01318943,0.01204086,0.01557896,0.11
 599140,-0.00025383,-0.00020500,-0.00016372,-0.00022472,-0.00013562,0.0
 0010402,-0.07808948,-0.14460242,-0.11327650,0.00024181,0.00067577,0.00
 053808,-0.00023714,0.00074868,-0.00042124,-0.00090062,-0.00140430,-0.0
 0129076,0.00431529,-0.00212645,0.00621960,-0.00097535,-0.00185560,-0.0
 0092304,0.00005055,0.00049521,-0.00082248,-0.00008563,0.00104278,-0.00
 239829,0.00933200,0.01555331,0.01304101,0.00023725,-0.00369721,0.00367
 888,0.00002761,0.00001910,0.00000307,-0.00003828,0.00009782,-0.0001042
 1,0.00003026,-0.00005630,0.00004372,0.00002523,-0.00000349,-0.00001279
 ,0.00005516,0.00000662,-0.00001244,0.00005178,0.00006995,-0.00000226,-
 0.00746159,-0.00935326,-0.01442590,-0.00759051,-0.00671505,-0.00747658
 ,0.08116122,0.15133352,0.00002393,-0.00000419,0.00000160,0.00012189,0.
 00001463,-0.00008271,-0.08785863,-0.11051731,-0.17584516,0.00004639,0.
 00056083,-0.00012996,0.00003935,-0.00054117,0.00010026,0.00130560,0.00
 056201,0.00173510,-0.00325443,0.00212536,-0.00218304,0.00161262,0.0008
 7432,0.00161135,0.00002789,-0.00018716,-0.00000782,-0.00084080,-0.0020
 0306,-0.00035696,-0.00789586,-0.01075645,-0.01414030,0.00003933,0.0017
 9846,-0.00084427,-0.00000213,0.00000128,-0.00000372,0.00000519,-0.0000
 1607,0.00001943,-0.00001744,-0.00001391,0.00000073,-0.00000502,0.00001
 042,0.00000259,-0.00002603,-0.00000067,0.00000721,-0.00003500,-0.00004
 734,0.00000440,0.00852321,0.00892893,0.01386414,-0.00895962,-0.0084141
 8,-0.01033195,0.09732143,0.11802739,0.18642594,0.00599768,-0.00119916,
 -0.00541244,0.00019327,-0.00044675,0.00038220,-0.00054099,0.00001109,0
 .00031111,-0.17864559,0.02228890,0.14049068,0.00220900,0.00062172,-0.0
 0212592,0.00604383,0.00143502,-0.00249579,-0.00041118,0.00001421,0.000
 03260,-0.00236442,-0.00056268,0.00068833,-0.00641803,-0.00080630,-0.00
 168161,0.00312846,0.00007693,-0.00225589,0.00256674,-0.00150649,-0.001
 23737,-0.02377738,0.00048918,0.01842987,0.00045571,0.00152863,-0.00162
 483,0.00060320,-0.00030163,0.00008729,0.00001073,-0.00023422,0.0004126
 7,-0.00004603,0.00010351,-0.00003193,0.00022538,0.00027404,0.00002289,
 0.00002728,0.00001176,-0.00001486,0.00006552,-0.00010130,0.00006141,-0
 .00011788,0.00010327,-0.00013936,-0.00005165,0.00016168,-0.00004345,0.
 19175396,-0.01654043,0.00257868,0.01675713,-0.00002394,-0.00004913,0.0
 0015560,-0.00053751,-0.00014621,0.00035301,0.01458819,-0.05027823,-0.0
 1479354,0.00081111,-0.00026692,-0.00010626,0.01748293,-0.01108280,-0.0
 2740770,-0.00072307,0.00013822,0.00127965,-0.00157313,0.00232934,0.002
 65216,-0.00068549,0.00031982,-0.00045395,-0.00007450,-0.00038333,0.000
 08045,0.00533763,-0.00220404,-0.00783995,-0.00059046,0.00165700,0.0023
 8131,0.00082607,-0.00295348,0.00346817,0.00026593,0.00082001,-0.000738
 25,-0.00035377,0.00071193,-0.00063717,0.00002051,0.00004807,-0.0000119
 8,0.00007530,0.00009046,-0.00002012,-0.00002322,-0.00000211,-0.0000174
 7,0.00003111,-0.00010569,0.00009916,-0.00011909,0.00020327,-0.00011257
 ,0.00009331,-0.00000868,-0.00001804,-0.01997971,0.06413993,0.01482830,
 -0.00052913,-0.01502632,0.00024606,0.00028453,0.00008507,-0.00013226,-
 0.00006264,0.00008123,0.13349301,-0.01969664,-0.18639380,0.00069176,0.
 00032803,-0.00110156,0.00641553,-0.00848717,-0.01156988,-0.00023348,-0
 .00038620,0.00036772,0.00034951,0.00247325,-0.00008483,-0.00615031,-0.
 00097884,-0.00013608,0.00088872,-0.00011517,-0.00137007,0.00272793,0.0
 0142704,-0.00213356,-0.01018487,0.00134079,0.01173816,-0.00110644,0.00
 313295,-0.00193111,-0.00003569,-0.00079856,0.00061016,-0.00022273,-0.0
 0005438,0.00087695,-0.00004592,0.00005809,-0.00001818,0.00000449,0.000
 09553,0.00006109,0.00001274,-0.00002909,-0.00001711,0.00004361,-0.0000
 3047,0.00007072,-0.00004538,0.00000612,-0.00001790,-0.00008892,-0.0000
 5009,0.00005500,-0.14272482,0.02453655,0.20526069,-0.00042490,0.000150
 43,-0.00008305,-0.00347146,-0.00516365,0.02463587,-0.00015901,-0.00003
 694,0.00009142,0.00206164,-0.00103689,-0.00052549,-0.01454451,-0.02098
 141,-0.00462063,-0.00136844,-0.00129663,-0.00021309,-0.00026031,-0.000
 23358,0.00006186,-0.00031958,0.00019049,0.00042949,-0.00159339,0.00344
 815,0.00283967,-0.00151665,-0.00253576,-0.00111442,0.00098421,0.000342
 33,-0.00091757,-0.00299404,0.00752861,0.00974820,-0.00003399,-0.000067
 78,0.00001846,-0.00001979,-0.00007520,-0.00017179,0.00019462,-0.000327
 70,0.00000072,-0.00235380,-0.00258798,0.00017897,-0.00000131,0.0007993
 3,0.00110588,0.00085007,0.00051890,-0.00052036,-0.00000095,-0.00004738
 ,-0.00000801,-0.00000575,0.00003556,0.00000447,0.00012502,0.00006236,-
 0.00007357,-0.00041301,-0.00020936,-0.00024102,0.02542203,0.00042573,-
 0.00005559,0.00028232,0.00080338,-0.00285104,0.02758926,-0.00002329,-0
 .00002556,-0.00001980,0.00104100,-0.00211729,0.00126681,-0.02223585,-0
 .06287042,0.07163215,-0.00096390,-0.00153547,-0.00037712,-0.00009174,-
 0.00031893,0.00013138,-0.00004883,-0.00010693,0.00029519,0.00413301,-0
 .00494158,-0.00338963,-0.00037731,0.00180182,0.00486620,0.00019013,0.0
 0083145,-0.00102843,0.00026670,0.00448867,-0.03792092,0.00002000,-0.00
 002256,-0.00000065,-0.00001677,0.00006050,0.00009958,-0.00013554,0.000
 11483,-0.00001936,-0.00427289,-0.00453161,0.00041289,-0.00023594,0.000
 66555,-0.00077569,0.00052497,-0.00006327,-0.00007182,0.00004373,-0.000
 00900,0.00004465,0.00000860,0.00000380,0.00001539,-0.00006721,-0.00014
 755,0.00001205,-0.00046183,0.00002250,-0.00037995,0.02153720,0.0716851
 9,0.00026906,0.00012669,0.00021458,-0.00371623,0.00045827,-0.00206770,
 0.00003581,0.00004093,-0.00005066,0.00098421,-0.00121905,0.00010539,0.
 03662693,0.05861535,-0.41860060,-0.00011572,-0.00044331,-0.00006358,0.
 00001746,-0.00002274,0.00008210,0.00006036,0.00004713,0.00003346,-0.00
 047778,-0.00062025,0.00153087,0.00030160,0.00385216,0.00289159,-0.0001
 7579,-0.00003639,-0.00028803,-0.00274942,0.00225246,-0.01808569,-0.000
 01738,-0.00002296,-0.00000146,0.00000992,0.00001112,0.00008300,-0.0000
 4828,0.00007383,-0.00016057,0.00049787,0.00052591,0.00148575,-0.000535
 13,-0.00096639,0.00070989,0.00013023,0.00021744,0.00020789,0.00002702,
 0.00002082,0.00003177,-0.00000008,-0.00000947,0.00000173,-0.00008154,-
 0.00013357,0.00007768,-0.00032354,-0.00004472,-0.00000815,-0.03063792,
 -0.06271132,0.43186705,0.00085078,-0.00119975,-0.00109337,0.00007524,0
 .00001855,-0.00031690,0.00053889,-0.00003329,-0.00140544,-0.00313856,0
 .00329615,0.00104324,-0.00124124,-0.00089529,-0.00040144,-0.01324123,-
 0.01369633,0.05684626,0.00107405,0.00250534,-0.00448283,-0.00614860,-0
 .00254185,0.00329817,-0.00126252,0.00094210,0.00190353,-0.00110300,0.0
 0043924,-0.00020114,-0.00551833,0.00159730,0.02501303,0.00379777,-0.00
 253019,-0.00389186,-0.00008688,-0.00037065,0.00042318,-0.00059867,0.00
 073586,-0.00007118,-0.00047591,-0.00058680,0.00028199,0.00005306,-0.00
 001792,0.00003443,-0.00008217,-0.00008365,-0.00001750,-0.00005888,-0.0
 0005183,0.00002822,-0.00029374,0.00049393,-0.00001935,0.00009414,0.000
 19024,0.00012313,0.00002793,0.00010496,-0.00005486,-0.00049460,0.00190
 159,0.00151018,-0.00015671,-0.00006336,-0.00008165,0.02738919,0.000873
 15,0.00245069,-0.00128877,-0.00002711,0.00021029,-0.00028047,-0.002893
 88,-0.00302921,0.00040494,0.00829565,-0.00317830,-0.03286467,-0.000563
 34,-0.00061125,-0.00019333,-0.01694963,-0.05809053,-0.03777262,0.00194
 314,-0.00058557,-0.00358410,-0.00365268,-0.00021663,0.00071016,-0.0004
 2945,-0.00015865,0.00047958,-0.00004915,0.00031473,-0.00015769,0.00239
 257,0.00655364,0.02460583,0.00264294,-0.00058602,0.00017123,-0.0009884
 1,-0.00060367,0.00075827,0.00053786,-0.00053564,0.00021278,-0.00019257
 ,0.00044936,0.00038543,-0.00004824,-0.00001215,0.00002801,-0.00007228,
 -0.00009643,0.00004462,-0.00003202,-0.00003508,-0.00000307,0.00097560,
 -0.00095963,0.00046442,0.00029897,-0.00061571,0.00034852,-0.00037383,0
 .00026819,-0.00039612,-0.00151985,-0.00557861,-0.00208456,-0.00001309,
 -0.00007748,-0.00001195,0.00984566,0.06472364,-0.00077666,0.00119538,0
 .00200789,-0.00012399,-0.00005841,0.00005929,0.00090694,0.00035097,-0.
 00006165,-0.00112836,0.00135088,-0.00438519,0.00001893,0.00025287,0.00
 030529,0.08231487,-0.05200417,-0.43076519,-0.00151143,-0.00195883,0.00
 088278,-0.00176569,0.00008125,0.00195232,0.00033452,0.00050951,0.00037
 785,-0.00006282,0.00019147,0.00025170,0.00015629,0.00089204,-0.0084619
 6,0.00064598,-0.00126091,-0.00163913,0.00058500,-0.00060118,0.00040079
 ,-0.00009318,-0.00016786,0.00030478,-0.00003135,0.00042291,-0.00036425
 ,0.00001314,-0.00001541,-0.00000902,0.00001703,-0.00000602,-0.00001657
 ,0.00002069,0.00003608,0.00000440,-0.00020467,0.00016013,-0.00004905,-
 0.00011451,0.00026232,-0.00000299,0.00006244,-0.00014190,0.00002045,-0
 .00080723,0.00043854,0.00060175,0.00001191,0.00004679,0.00000369,-0.07
 846785,0.05002355,0.43858199\\-0.00000007,0.00001189,-0.00000202,0.000
 01228,0.00000008,-0.00000240,0.00001682,0.00000627,0.00000505,0.000000
 11,0.00001282,0.00002412,-0.00001464,0.00001420,-0.00000396,0.00000597
 ,-0.00000901,-0.00001306,-0.00000168,0.00000756,0.00000064,0.00000919,
 -0.00000176,-0.00000658,0.00000236,0.00000305,-0.00000971,0.00000074,-
 0.00001866,0.00000868,-0.00001164,0.00000367,0.00000289,-0.00000992,0.
 00000123,-0.00000371,0.00000069,-0.00000335,-0.00000227,-0.00000153,-0
 .00000064,-0.00000245,-0.00000090,-0.00000594,0.00000083,-0.00000178,-
 0.00000225,0.00000170,-0.00000047,0.00000338,0.00000068,0.00000081,0.0
 0000135,-0.00000150,-0.00000039,0.00000118,-0.00000038,-0.00000409,-0.
 00000218,0.00000191,-0.00000138,-0.00000286,0.00000069,-0.00000383,-0.
 00000086,0.00000007,-0.00000175,-0.00000301,0.00000121,0.00000509,-0.0
 0001617,-0.00000042\\\@


 WE MIGHT AS WELL ATTEMPT TO INTRODUCE A NEW PLANET 
 INTO THE SOLAR SYSTEM, OR TO ANNIHILATE ONE ALREADYIN EXISTENCE, 
 AS TO CREATE OR DESTROY A PARTICLE OF HYDROGEN.
 ALL THE CHANGES WE CAN PRODUCE CONSIST IN SEPARATING PARTICLES
 THAT ARE IN A STATE OF ... COMBINATION, AND JOINING 
 THOSE THAT WERE PREVIOUSLY AT A DISTANCE.

                                    -- JOHN DALTON, 1810
 Job cpu time:  0 days  1 hours 13 minutes  7.6 seconds.
 File lengths (MBytes):  RWF=    158 Int=      0 D2E=      0 Chk=      5 Scr=      1
 Normal termination of Gaussian 09 at Mon Feb 26 22:58:14 2018.
