 Entering Gaussian System, Link 0=g09
 Initial command:
 /home/fb_chem/chemsoft/lx24-amd64/Gaussian_09_C.01_NBO_3.1_64_istanbul-64/g09/l1.exe /local/2400103.1.parallel/Gau-24234.inp -scrdir=/local/2400103.1.parallel/
 Entering Link 1 = /home/fb_chem/chemsoft/lx24-amd64/Gaussian_09_C.01_NBO_3.1_64_istanbul-64/g09/l1.exe PID=     24235.
  
 Copyright (c) 1988,1990,1992,1993,1995,1998,2003,2009,2011,
            Gaussian, Inc.  All Rights Reserved.
  
 This is part of the Gaussian(R) 09 program.  It is based on
 the Gaussian(R) 03 system (copyright 2003, Gaussian, Inc.),
 the Gaussian(R) 98 system (copyright 1998, Gaussian, Inc.),
 the Gaussian(R) 94 system (copyright 1995, Gaussian, Inc.),
 the Gaussian 92(TM) system (copyright 1992, Gaussian, Inc.),
 the Gaussian 90(TM) system (copyright 1990, Gaussian, Inc.),
 the Gaussian 88(TM) system (copyright 1988, Gaussian, Inc.),
 the Gaussian 86(TM) system (copyright 1986, Carnegie Mellon
 University), and the Gaussian 82(TM) system (copyright 1983,
 Carnegie Mellon University). Gaussian is a federally registered
 trademark of Gaussian, Inc.
  
 This software contains proprietary and confidential information,
 including trade secrets, belonging to Gaussian, Inc.
  
 This software is provided under written license and may be
 used, copied, transmitted, or stored only in accord with that
 written license.
  
 The following legend is applicable only to US Government
 contracts under FAR:
  
                    RESTRICTED RIGHTS LEGEND
  
 Use, reproduction and disclosure by the US Government is
 subject to restrictions as set forth in subparagraphs (a)
 and (c) of the Commercial Computer Software - Restricted
 Rights clause in FAR 52.227-19.
  
 Gaussian, Inc.
 340 Quinnipiac St., Bldg. 40, Wallingford CT 06492
  
  
 ---------------------------------------------------------------
 Warning -- This program may not be used in any manner that
 competes with the business of Gaussian, Inc. or will provide
 assistance to any competitor of Gaussian, Inc.  The licensee
 of this program is prohibited from giving any competitor of
 Gaussian, Inc. access to this program.  By using this program,
 the user acknowledges that Gaussian, Inc. is engaged in the
 business of creating and licensing software in the field of
 computational chemistry and represents and warrants to the
 licensee that it is not a competitor of Gaussian, Inc. and that
 it will not use this program in any manner prohibited above.
 ---------------------------------------------------------------
  

 Cite this work as:
 Gaussian 09, Revision C.01,
 M. J. Frisch, G. W. Trucks, H. B. Schlegel, G. E. Scuseria, 
 M. A. Robb, J. R. Cheeseman, G. Scalmani, V. Barone, B. Mennucci, 
 G. A. Petersson, H. Nakatsuji, M. Caricato, X. Li, H. P. Hratchian, 
 A. F. Izmaylov, J. Bloino, G. Zheng, J. L. Sonnenberg, M. Hada, 
 M. Ehara, K. Toyota, R. Fukuda, J. Hasegawa, M. Ishida, T. Nakajima, 
 Y. Honda, O. Kitao, H. Nakai, T. Vreven, J. A. Montgomery, Jr., 
 J. E. Peralta, F. Ogliaro, M. Bearpark, J. J. Heyd, E. Brothers, 
 K. N. Kudin, V. N. Staroverov, T. Keith, R. Kobayashi, J. Normand, 
 K. Raghavachari, A. Rendell, J. C. Burant, S. S. Iyengar, J. Tomasi, 
 M. Cossi, N. Rega, J. M. Millam, M. Klene, J. E. Knox, J. B. Cross, 
 V. Bakken, C. Adamo, J. Jaramillo, R. Gomperts, R. E. Stratmann, 
 O. Yazyev, A. J. Austin, R. Cammi, C. Pomelli, J. W. Ochterski, 
 R. L. Martin, K. Morokuma, V. G. Zakrzewski, G. A. Voth, 
 P. Salvador, J. J. Dannenberg, S. Dapprich, A. D. Daniels, 
 O. Farkas, J. B. Foresman, J. V. Ortiz, J. Cioslowski, 
 and D. J. Fox, Gaussian, Inc., Wallingford CT, 2010.
 
 ******************************************
 Gaussian 09:  AM64L-G09RevC.01 23-Sep-2011
                17-Feb-2018 
 ******************************************
 %nprocs=2
 Will use up to    2 processors via shared memory.
 %chk=frag54-conf1.chk
 ----------------------------------------------------------------------
 #HF/6-31G* Geom=AllCheck Guess=Read Pop=(MK,ReadRadii) Integral=(Grid=
 UltraFine) iop(6/33=2)
 ----------------------------------------------------------------------
 1/29=7,38=1/1;
 2/12=2,40=1/2;
 3/5=1,6=6,7=1,11=9,14=-4,16=1,25=1,30=1,75=-5,116=-2/1,2,3;
 4/5=1/1;
 5/5=2,38=6/2;
 6/7=2,8=2,9=2,10=2,15=8,20=101,28=1,33=2/1,2;
 99/5=1,9=1/99;
 Structure from the checkpoint file:  frag54-conf1.chk
 -----------------------------
 Optimization for frag54-conf1
 -----------------------------
 Charge =  0 Multiplicity = 1
 Redundant internal coordinates found in file.
 C,0,3.1289571278,-0.6957214202,-0.0201619198
 C,0,2.2316650172,0.3681443652,0.1348430229
 C,0,3.1972307353,-1.7052619044,0.9300669277
 C,0,1.4649642518,-0.5988429396,2.2204028627
 C,0,1.3988976721,0.4174905623,1.2527980392
 C,0,2.3614355182,-1.6579318253,2.0585391303
 C,0,-1.786855247,0.7548142641,2.2758927899
 C,0,-3.1803283286,0.2835549996,1.8850687176
 C,0,1.6945784155,-2.6893992175,4.107471673
 C,0,0.4052674282,1.5504783043,1.4361822368
 N,0,-0.9883509909,1.1515085606,1.2391059575
 O,0,-1.4211444478,0.784134781,3.4470963504
 O,0,2.5038297263,-2.6899810876,2.9405138968
 H,0,3.7798448861,-0.7337299464,-0.889825448
 H,0,2.1874933983,1.1575759978,-0.6118435136
 H,0,3.8874773143,-2.5370066371,0.8291747584
 H,0,0.810487499,-0.5370038628,3.0824774567
 H,0,-3.2836448158,-0.7743594343,2.148012477
 H,0,-3.9150306824,0.8390632955,2.4749264482
 H,0,-3.4083226558,0.4084664062,0.8218480149
 H,0,1.9688543705,-3.5893833331,4.6610315328
 H,0,0.6260860816,-2.7259292246,3.8587281744
 H,0,1.8854731854,-1.8061004423,4.7304709488
 H,0,0.460740607,1.9490119905,2.4522564611
 H,0,0.6291743935,2.3645873861,0.7383540916
 H,0,-1.2923869043,0.9583431909,0.2950915782
 Recover connectivity data from disk.
                          Input orientation:                          
 ---------------------------------------------------------------------
 Center     Atomic      Atomic             Coordinates (Angstroms)
 Number     Number       Type             X           Y           Z
 ---------------------------------------------------------------------
      1          6           0        3.128957   -0.695721   -0.020162
      2          6           0        2.231665    0.368144    0.134843
      3          6           0        3.197231   -1.705262    0.930067
      4          6           0        1.464964   -0.598843    2.220403
      5          6           0        1.398898    0.417491    1.252798
      6          6           0        2.361436   -1.657932    2.058539
      7          6           0       -1.786855    0.754814    2.275893
      8          6           0       -3.180328    0.283555    1.885069
      9          6           0        1.694578   -2.689399    4.107472
     10          6           0        0.405267    1.550478    1.436182
     11          7           0       -0.988351    1.151509    1.239106
     12          8           0       -1.421144    0.784135    3.447096
     13          8           0        2.503830   -2.689981    2.940514
     14          1           0        3.779845   -0.733730   -0.889825
     15          1           0        2.187493    1.157576   -0.611844
     16          1           0        3.887477   -2.537007    0.829175
     17          1           0        0.810487   -0.537004    3.082477
     18          1           0       -3.283645   -0.774359    2.148012
     19          1           0       -3.915031    0.839063    2.474926
     20          1           0       -3.408323    0.408466    0.821848
     21          1           0        1.968854   -3.589383    4.661032
     22          1           0        0.626086   -2.725929    3.858728
     23          1           0        1.885473   -1.806100    4.730471
     24          1           0        0.460741    1.949012    2.452256
     25          1           0        0.629174    2.364587    0.738354
     26          1           0       -1.292387    0.958343    0.295092
 ---------------------------------------------------------------------
                    Distance matrix (angstroms):
                    1          2          3          4          5
     1  C    0.000000
     2  C    1.400346   0.000000
     3  C    1.388081   2.421510   0.000000
     4  C    2.792559   2.423315   2.426907   0.000000
     5  C    2.419251   1.394905   2.800756   1.404834   0.000000
     6  C    2.415768   2.796861   1.405078   1.396972   2.425505
     7  C    5.616149   4.569695   5.718770   3.522754   3.362965
     8  C    6.663030   5.688595   6.748384   4.740234   4.624610
     9  C    4.803077   5.041707   3.649985   2.825629   4.229581
    10  C    3.819010   2.535178   4.318687   2.521416   1.518088
    11  N    4.685108   3.493073   5.076981   3.169453   2.497584
    12  O    5.908915   4.948443   5.819100   3.427394   3.591937
    13  O    3.624011   4.159086   2.343581   2.443493   3.704813
    14  H    1.086929   2.158919   2.143670   3.879483   3.403682
    15  H    2.161285   1.087517   3.404835   3.410084   2.155574
    16  H    2.164961   3.415218   1.085550   3.400083   3.886070
    17  H    3.876450   3.395230   3.419684   1.084129   2.145929
    18  H    6.769684   5.981372   6.659709   4.752403   4.914074
    19  H    7.628813   6.593908   7.710022   5.574648   5.468926
    20  H    6.683131   5.681819   6.936346   5.169096   4.826507
    21  H    5.624295   6.018096   4.356480   3.892802   5.291119
    22  H    5.043005   5.100833   4.028598   2.812885   4.155622
    23  H    5.034651   5.095781   4.021685   2.816867   4.156359
    24  H    4.497427   3.317487   4.812396   2.748415   2.159722
    25  H    4.023649   2.630207   4.816154   3.417153   2.155995
    26  H    4.731131   3.576724   5.258769   3.706027   2.907359
                    6          7          8          9         10
     6  C    0.000000
     7  C    4.803842   0.000000
     8  C    5.874573   1.522037   0.000000
     9  C    2.388880   5.228544   6.127173   0.000000
    10  C    3.808913   2.478628   3.829242   5.174425   0.000000
    11  N    4.448089   1.367444   2.444458   5.493469   1.462938
    12  O    4.711655   1.227323   2.405252   4.712670   2.822559
    13  O    1.365021   5.542410   6.501195   1.420098   4.964723
    14  H    3.399836   6.574624   7.561674   5.757253   4.692088
    15  H    3.884364   4.929167   5.984312   6.108528   2.743194
    16  H    2.147769   6.717673   7.682731   3.947057   5.403867
    17  H    2.170338   3.010907   4.246612   2.542643   2.689251
    18  H    5.714511   2.143620   1.094987   5.682391   4.418104
    19  H    6.767746   2.139122   1.093759   6.825171   4.500009
    20  H    6.252161   2.205303   1.094542   6.814081   4.028035
    21  H    3.264597   6.218223   7.015676   1.091617   6.265990
    22  H    2.718959   4.521419   5.238427   1.097672   4.919873
    23  H    2.718035   5.105804   6.174570   1.097627   4.930514
    24  H    4.096059   2.551254   4.043863   5.077101   1.092846
    25  H    4.574306   3.285208   4.489762   6.166751   1.095387
    26  H    4.827532   2.051706   2.558845   6.063186   2.129493
                   11         12         13         14         15
    11  N    0.000000
    12  O    2.279802   0.000000
    13  O    5.463255   5.266073   0.000000
    14  H    5.551771   6.939964   4.486272   0.000000
    15  H    3.675872   5.443962   5.246237   2.487950   0.000000
    16  H    6.127552   6.787117   2.528959   2.493663   4.314675
    17  H    3.079759   2.618881   2.742786   4.963363   4.291358
    18  H    3.131047   2.754166   6.147563   7.689148   6.425148
    19  H    3.192229   2.677237   7.339802   8.544375   6.846196
    20  H    2.565634   3.313900   7.003047   7.476911   5.824929
    21  H    6.552152   5.665103   2.013779   6.499727   7.098214
    22  H    4.950086   4.084255   2.090534   6.038527   6.124183
    23  H    5.403327   4.392048   2.089870   6.027135   6.116774
    24  H    2.051247   2.426548   5.092432   5.420615   3.605101
    25  H    2.082955   3.746855   5.823444   4.709274   2.389198
    26  H    1.010403   3.159440   5.892350   5.476739   3.601637
                   16         17         18         19         20
    16  H    0.000000
    17  H    4.306420   0.000000
    18  H    7.501417   4.206124   0.000000
    19  H    8.659416   4.959153   1.763137   0.000000
    20  H    7.867945   4.878803   1.781385   1.781807   0.000000
    21  H    4.412679   3.626385   6.467486   7.681816   7.722446
    22  H    4.455397   2.329799   4.692672   5.936819   5.943360
    23  H    4.445487   2.341385   5.869699   6.762412   6.943048
    24  H    5.873779   2.588393   4.640015   4.514407   4.472266
    25  H    5.886460   3.734571   5.210593   5.098304   4.487178
    26  H    6.271659   3.798376   3.225009   3.412355   2.248782
                   21         22         23         24         25
    21  H    0.000000
    22  H    1.786693   0.000000
    23  H    1.786581   1.786638   0.000000
    24  H    6.150359   4.884729   4.617466   0.000000
    25  H    7.254785   5.970771   5.908462   1.771591   0.000000
    26  H    7.097813   5.473016   6.116660   2.950973   2.422066
                   26
    26  H    0.000000
 Stoichiometry    C10H13NO2
 Framework group  C1[X(C10H13NO2)]
 Deg. of freedom    72
 Full point group                 C1      NOp   1
 Largest Abelian subgroup         C1      NOp   1
 Largest concise Abelian subgroup C1      NOp   1
                         Standard orientation:                         
 ---------------------------------------------------------------------
 Center     Atomic      Atomic             Coordinates (Angstroms)
 Number     Number       Type             X           Y           Z
 ---------------------------------------------------------------------
      1          6           0       -2.330988    1.961551    0.418356
      2          6           0       -1.024554    2.194073   -0.029006
      3          6           0       -2.832825    0.669327    0.489662
      4          6           0       -0.720817   -0.189693   -0.341832
      5          6           0       -0.218469    1.120586   -0.407970
      6          6           0       -2.024557   -0.414369    0.106845
      7          6           0        2.778203   -0.339038    0.038108
      8          6           0        3.748541   -0.660803    1.165720
      9          6           0       -1.841051   -2.778766   -0.180734
     10          6           0        1.206977    1.343745   -0.880088
     11          7           0        2.221891    0.909431    0.079865
     12          8           0        2.530064   -1.149316   -0.849697
     13          8           0       -2.605382   -1.645750    0.204951
     14          1           0       -2.960548    2.797644    0.711642
     15          1           0       -0.640362    3.209852   -0.086302
     16          1           0       -3.843377    0.468571    0.831570
     17          1           0       -0.076959   -1.007502   -0.645100
     18          1           0        3.339648   -1.483516    1.761493
     19          1           0        4.688123   -1.010753    0.728650
     20          1           0        3.956273    0.186467    1.826782
     21          1           0       -2.489226   -3.643066   -0.024267
     22          1           0       -0.937318   -2.885031    0.433153
     23          1           0       -1.549920   -2.728293   -1.237843
     24          1           0        1.401012    0.779138   -1.795447
     25          1           0        1.371273    2.405491   -1.093573
     26          1           0        2.347942    1.465826    0.913801
 ---------------------------------------------------------------------
 Rotational constants (GHZ):      1.1309434      0.5134593      0.3868473
 Standard basis: 6-31G(d) (6D, 7F)
 There are   221 symmetry adapted basis functions of A   symmetry.
 Integral buffers will be    131072 words long.
 Raffenetti 1 integral format.
 Two-electron integral symmetry is turned on.
   221 basis functions,   416 primitive gaussians,   221 cartesian basis functions
    48 alpha electrons       48 beta electrons
       nuclear repulsion energy       771.0144968579 Hartrees.
 NAtoms=   26 NActive=   26 NUniq=   26 SFac= 1.00D+00 NAtFMM=   60 NAOKFM=F Big=F
 One-electron integrals computed using PRISM.
 NBasis=   221 RedAO= T  NBF=   221
 NBsUse=   221 1.00D-06 NBFU=   221
 Initial guess read from the checkpoint file:  frag54-conf1.chk
 B after Tr=     0.000000    0.000000    0.000000
         Rot=    1.000000    0.000000    0.000000    0.000000 Ang=   0.00 deg.
 Initial guess orbital symmetries:
       Occupied  (A) (A) (A) (A) (A) (A) (A) (A) (A) (A) (A) (A)
                 (A) (A) (A) (A) (A) (A) (A) (A) (A) (A) (A) (A)
                 (A) (A) (A) (A) (A) (A) (A) (A) (A) (A) (A) (A)
                 (A) (A) (A) (A) (A) (A) (A) (A) (A) (A) (A) (A)
       Virtual   (A) (A) (A) (A) (A) (A) (A) (A) (A) (A) (A) (A)
                 (A) (A) (A) (A) (A) (A) (A) (A) (A) (A) (A) (A)
                 (A) (A) (A) (A) (A) (A) (A) (A) (A) (A) (A) (A)
                 (A) (A) (A) (A) (A) (A) (A) (A) (A) (A) (A) (A)
                 (A) (A) (A) (A) (A) (A) (A) (A) (A) (A) (A) (A)
                 (A) (A) (A) (A) (A) (A) (A) (A) (A) (A) (A) (A)
                 (A) (A) (A) (A) (A) (A) (A) (A) (A) (A) (A) (A)
                 (A) (A) (A) (A) (A) (A) (A) (A) (A) (A) (A) (A)
                 (A) (A) (A) (A) (A) (A) (A) (A) (A) (A) (A) (A)
                 (A) (A) (A) (A) (A) (A) (A) (A) (A) (A) (A) (A)
                 (A) (A) (A) (A) (A) (A) (A) (A) (A) (A) (A) (A)
                 (A) (A) (A) (A) (A) (A) (A) (A) (A) (A) (A) (A)
                 (A) (A) (A) (A) (A) (A) (A) (A) (A) (A) (A) (A)
                 (A) (A) (A) (A) (A) (A) (A) (A) (A) (A) (A) (A)
                 (A) (A) (A) (A) (A)
 Requested convergence on RMS density matrix=1.00D-08 within 128 cycles.
 Requested convergence on MAX density matrix=1.00D-06.
 Requested convergence on             energy=1.00D-06.
 No special actions if energy rises.
 SCF Done:  E(RHF) =  -590.431548176     A.U. after   14 cycles
             Convg  =    0.4512D-08             -V/T =  2.0024

 **********************************************************************

            Population analysis using the SCF density.

 **********************************************************************

 Orbital symmetries:
 BldTbl:  Degeneracy threshold= 1.00D-02
       Occupied  (A) (A) (A) (A) (A) (A) (A) (A) (A) (A) (A) (A)
                 (A) (A) (A) (A) (A) (A) (A) (A) (A) (A) (A) (A)
                 (A) (A) (A) (A) (A) (A) (A) (A) (A) (A) (A) (A)
                 (A) (A) (A) (A) (A) (A) (A) (A) (A) (A) (A) (A)
       Virtual   (A) (A) (A) (A) (A) (A) (A) (A) (A) (A) (A) (A)
                 (A) (A) (A) (A) (A) (A) (A) (A) (A) (A) (A) (A)
                 (A) (A) (A) (A) (A) (A) (A) (A) (A) (A) (A) (A)
                 (A) (A) (A) (A) (A) (A) (A) (A) (A) (A) (A) (A)
                 (A) (A) (A) (A) (A) (A) (A) (A) (A) (A) (A) (A)
                 (A) (A) (A) (A) (A) (A) (A) (A) (A) (A) (A) (A)
                 (A) (A) (A) (A) (A) (A) (A) (A) (A) (A) (A) (A)
                 (A) (A) (A) (A) (A) (A) (A) (A) (A) (A) (A) (A)
                 (A) (A) (A) (A) (A) (A) (A) (A) (A) (A) (A) (A)
                 (A) (A) (A) (A) (A) (A) (A) (A) (A) (A) (A) (A)
                 (A) (A) (A) (A) (A) (A) (A) (A) (A) (A) (A) (A)
                 (A) (A) (A) (A) (A) (A) (A) (A) (A) (A) (A) (A)
                 (A) (A) (A) (A) (A) (A) (A) (A) (A) (A) (A) (A)
                 (A) (A) (A) (A) (A) (A) (A) (A) (A) (A) (A) (A)
                 (A) (A) (A) (A) (A)
 The electronic state is 1-A.
 Alpha  occ. eigenvalues --  -20.58456 -20.52325 -15.59256 -11.35722 -11.29737
 Alpha  occ. eigenvalues --  -11.27990 -11.27126 -11.24374 -11.24153 -11.23804
 Alpha  occ. eigenvalues --  -11.22668 -11.22515 -11.22326  -1.40051  -1.37441
 Alpha  occ. eigenvalues --   -1.23024  -1.14255  -1.04462  -1.00853  -1.00226
 Alpha  occ. eigenvalues --   -0.94367  -0.91640  -0.81445  -0.80437  -0.78192
 Alpha  occ. eigenvalues --   -0.70834  -0.69019  -0.66064  -0.65532  -0.64874
 Alpha  occ. eigenvalues --   -0.64407  -0.62048  -0.60749  -0.58532  -0.57798
 Alpha  occ. eigenvalues --   -0.57097  -0.55847  -0.54138  -0.52491  -0.51515
 Alpha  occ. eigenvalues --   -0.50598  -0.49851  -0.47825  -0.45747  -0.42047
 Alpha  occ. eigenvalues --   -0.39023  -0.32882  -0.30491
 Alpha virt. eigenvalues --    0.13617   0.16051   0.19395   0.21518   0.24702
 Alpha virt. eigenvalues --    0.25568   0.26799   0.28503   0.29951   0.31211
 Alpha virt. eigenvalues --    0.31342   0.32131   0.32382   0.32786   0.33660
 Alpha virt. eigenvalues --    0.34032   0.36295   0.36704   0.39666   0.42743
 Alpha virt. eigenvalues --    0.43903   0.47159   0.48206   0.49070   0.53307
 Alpha virt. eigenvalues --    0.53859   0.59137   0.61224   0.63652   0.71305
 Alpha virt. eigenvalues --    0.73230   0.73671   0.74780   0.74904   0.76125
 Alpha virt. eigenvalues --    0.76751   0.77114   0.77982   0.80649   0.82460
 Alpha virt. eigenvalues --    0.83435   0.84022   0.84783   0.85661   0.85987
 Alpha virt. eigenvalues --    0.88609   0.89058   0.90718   0.93097   0.95149
 Alpha virt. eigenvalues --    0.96559   0.98120   0.99633   1.00830   1.03099
 Alpha virt. eigenvalues --    1.07156   1.07605   1.09294   1.10768   1.11534
 Alpha virt. eigenvalues --    1.12510   1.13315   1.14764   1.14921   1.16241
 Alpha virt. eigenvalues --    1.17216   1.18063   1.18500   1.19139   1.19734
 Alpha virt. eigenvalues --    1.20497   1.21471   1.23026   1.23635   1.28591
 Alpha virt. eigenvalues --    1.31533   1.34158   1.34480   1.38002   1.38253
 Alpha virt. eigenvalues --    1.41387   1.43851   1.47550   1.48612   1.50662
 Alpha virt. eigenvalues --    1.52274   1.55662   1.58275   1.60742   1.63168
 Alpha virt. eigenvalues --    1.64556   1.66859   1.69054   1.72310   1.73640
 Alpha virt. eigenvalues --    1.75881   1.77053   1.79530   1.80700   1.81836
 Alpha virt. eigenvalues --    1.87074   1.93993   1.97552   2.03327   2.04399
 Alpha virt. eigenvalues --    2.09473   2.11475   2.11661   2.13194   2.14424
 Alpha virt. eigenvalues --    2.16734   2.18598   2.19677   2.22681   2.24694
 Alpha virt. eigenvalues --    2.26942   2.27883   2.29458   2.31454   2.34499
 Alpha virt. eigenvalues --    2.37062   2.39271   2.41546   2.42930   2.44516
 Alpha virt. eigenvalues --    2.46695   2.49862   2.50584   2.54057   2.54565
 Alpha virt. eigenvalues --    2.57033   2.59089   2.62140   2.62866   2.65352
 Alpha virt. eigenvalues --    2.66216   2.69310   2.72303   2.74506   2.76966
 Alpha virt. eigenvalues --    2.78770   2.87785   2.89378   2.92183   2.96381
 Alpha virt. eigenvalues --    2.99921   3.01255   3.02890   3.04286   3.05499
 Alpha virt. eigenvalues --    3.13966   3.14901   3.21247   3.25425   3.30741
 Alpha virt. eigenvalues --    3.34976   3.36968   3.50098   3.56898   3.80765
 Alpha virt. eigenvalues --    4.37490   4.47557   4.47912   4.52915   4.57192
 Alpha virt. eigenvalues --    4.60827   4.64378   4.74869   4.76652   4.84020
 Alpha virt. eigenvalues --    4.89819   4.93680   5.20480
          Condensed to atoms (all electrons):
              1          2          3          4          5          6
     1  C    4.881924   0.531074   0.553994  -0.033339  -0.041476  -0.038014
     2  C    0.531074   4.960068  -0.052482  -0.052840   0.578912  -0.028490
     3  C    0.553994  -0.052482   4.958878  -0.054717  -0.028866   0.570345
     4  C   -0.033339  -0.052840  -0.054717   5.157857   0.506264   0.526848
     5  C   -0.041476   0.578912  -0.028866   0.506264   4.864081  -0.025114
     6  C   -0.038014  -0.028490   0.570345   0.526848  -0.025114   4.395969
     7  C   -0.000003  -0.000068   0.000000   0.002198  -0.002127   0.000086
     8  C    0.000000  -0.000007   0.000000  -0.000010  -0.000407   0.000002
     9  C   -0.000074   0.000002   0.002568  -0.007686  -0.000431  -0.043290
    10  C    0.002842  -0.035072   0.000349  -0.042002   0.330177   0.000346
    11  N   -0.000009  -0.001478  -0.000002   0.000624  -0.072992   0.000007
    12  O    0.000000  -0.000031   0.000001  -0.003032  -0.002724   0.000137
    13  O    0.001880   0.000218  -0.049786  -0.050940   0.003406   0.251127
    14  H    0.380626  -0.029755  -0.028129   0.000127   0.002241   0.002017
    15  H   -0.028792   0.379937   0.002183   0.003067  -0.032859   0.000265
    16  H   -0.028654   0.002523   0.376025   0.003866  -0.000106  -0.029514
    17  H    0.000097   0.002163   0.001922   0.366268  -0.024601  -0.025323
    18  H    0.000000   0.000000   0.000000   0.000016   0.000046   0.000000
    19  H    0.000000   0.000000   0.000000   0.000001  -0.000004   0.000000
    20  H    0.000000   0.000001   0.000000  -0.000005   0.000011   0.000000
    21  H    0.000002   0.000000  -0.000025   0.000488   0.000019   0.002163
    22  H   -0.000001  -0.000007   0.000002   0.000509  -0.000289  -0.001184
    23  H   -0.000002  -0.000006   0.000020   0.000436  -0.000257  -0.001031
    24  H   -0.000056   0.001514   0.000000  -0.002506  -0.040109  -0.000005
    25  H    0.000208  -0.001130  -0.000022   0.003272  -0.058321   0.000048
    26  H    0.000001   0.000845  -0.000006   0.000289   0.001511  -0.000005
              7          8          9         10         11         12
     1  C   -0.000003   0.000000  -0.000074   0.002842  -0.000009   0.000000
     2  C   -0.000068  -0.000007   0.000002  -0.035072  -0.001478  -0.000031
     3  C    0.000000   0.000000   0.002568   0.000349  -0.000002   0.000001
     4  C    0.002198  -0.000010  -0.007686  -0.042002   0.000624  -0.003032
     5  C   -0.002127  -0.000407  -0.000431   0.330177  -0.072992  -0.002724
     6  C    0.000086   0.000002  -0.043290   0.000346   0.000007   0.000137
     7  C    4.158100   0.360574  -0.000008  -0.025508   0.283318   0.566184
     8  C    0.360574   5.244422   0.000000   0.004458  -0.101844  -0.067697
     9  C   -0.000008   0.000000   4.858971  -0.000008   0.000003  -0.000037
    10  C   -0.025508   0.004458  -0.000008   4.939682   0.189119   0.003363
    11  N    0.283318  -0.101844   0.000003   0.189119   7.346437  -0.094530
    12  O    0.566184  -0.067697  -0.000037   0.003363  -0.094530   8.210287
    13  O    0.000000   0.000000   0.199183  -0.000037   0.000000   0.000000
    14  H    0.000000   0.000000   0.000002  -0.000107   0.000002   0.000000
    15  H    0.000000   0.000000   0.000000  -0.002788   0.000105   0.000000
    16  H    0.000000   0.000000  -0.000107   0.000006   0.000000   0.000000
    17  H    0.000898   0.000184   0.001205  -0.000022  -0.002222   0.010929
    18  H   -0.027574   0.379458   0.000000  -0.000105   0.001142   0.000362
    19  H   -0.027613   0.381075   0.000000  -0.000114   0.001928   0.001053
    20  H   -0.038974   0.374852   0.000000   0.000034   0.005454   0.002485
    21  H    0.000000   0.000000   0.401199   0.000000   0.000000   0.000000
    22  H    0.000038  -0.000002   0.388425   0.000004  -0.000004   0.000046
    23  H   -0.000005   0.000000   0.389212  -0.000001   0.000000  -0.000002
    24  H   -0.000845   0.000331  -0.000002   0.408227  -0.042271   0.006950
    25  H    0.002462  -0.000036   0.000000   0.416348  -0.041509   0.000360
    26  H   -0.015898   0.000256   0.000000  -0.021784   0.317202   0.002171
             13         14         15         16         17         18
     1  C    0.001880   0.380626  -0.028792  -0.028654   0.000097   0.000000
     2  C    0.000218  -0.029755   0.379937   0.002523   0.002163   0.000000
     3  C   -0.049786  -0.028129   0.002183   0.376025   0.001922   0.000000
     4  C   -0.050940   0.000127   0.003067   0.003866   0.366268   0.000016
     5  C    0.003406   0.002241  -0.032859  -0.000106  -0.024601   0.000046
     6  C    0.251127   0.002017   0.000265  -0.029514  -0.025323   0.000000
     7  C    0.000000   0.000000   0.000000   0.000000   0.000898  -0.027574
     8  C    0.000000   0.000000   0.000000   0.000000   0.000184   0.379458
     9  C    0.199183   0.000002   0.000000  -0.000107   0.001205   0.000000
    10  C   -0.000037  -0.000107  -0.002788   0.000006  -0.000022  -0.000105
    11  N    0.000000   0.000002   0.000105   0.000000  -0.002222   0.001142
    12  O    0.000000   0.000000   0.000000   0.000000   0.010929   0.000362
    13  O    8.417380  -0.000046   0.000001   0.000995  -0.003991   0.000000
    14  H   -0.000046   0.472496  -0.001304  -0.001859   0.000008   0.000000
    15  H    0.000001  -0.001304   0.486210  -0.000092  -0.000102   0.000000
    16  H    0.000995  -0.001859  -0.000092   0.460753  -0.000078   0.000000
    17  H   -0.003991   0.000008  -0.000102  -0.000078   0.415232  -0.000015
    18  H    0.000000   0.000000   0.000000   0.000000  -0.000015   0.484084
    19  H    0.000000   0.000000   0.000000   0.000000  -0.000001  -0.019709
    20  H    0.000000   0.000000   0.000000   0.000000  -0.000008  -0.023084
    21  H   -0.032419   0.000000   0.000000  -0.000018   0.000054   0.000000
    22  H   -0.036797   0.000000   0.000000   0.000015  -0.000134   0.000003
    23  H   -0.036680   0.000000   0.000000   0.000015   0.000101   0.000000
    24  H    0.000000   0.000002   0.000026   0.000000   0.000521  -0.000009
    25  H    0.000000  -0.000004   0.002664   0.000000  -0.000063  -0.000001
    26  H    0.000000   0.000000   0.000039   0.000000  -0.000049  -0.000087
             19         20         21         22         23         24
     1  C    0.000000   0.000000   0.000002  -0.000001  -0.000002  -0.000056
     2  C    0.000000   0.000001   0.000000  -0.000007  -0.000006   0.001514
     3  C    0.000000   0.000000  -0.000025   0.000002   0.000020   0.000000
     4  C    0.000001  -0.000005   0.000488   0.000509   0.000436  -0.002506
     5  C   -0.000004   0.000011   0.000019  -0.000289  -0.000257  -0.040109
     6  C    0.000000   0.000000   0.002163  -0.001184  -0.001031  -0.000005
     7  C   -0.027613  -0.038974   0.000000   0.000038  -0.000005  -0.000845
     8  C    0.381075   0.374852   0.000000  -0.000002   0.000000   0.000331
     9  C    0.000000   0.000000   0.401199   0.388425   0.389212  -0.000002
    10  C   -0.000114   0.000034   0.000000   0.000004  -0.000001   0.408227
    11  N    0.001928   0.005454   0.000000  -0.000004   0.000000  -0.042271
    12  O    0.001053   0.002485   0.000000   0.000046  -0.000002   0.006950
    13  O    0.000000   0.000000  -0.032419  -0.036797  -0.036680   0.000000
    14  H    0.000000   0.000000   0.000000   0.000000   0.000000   0.000002
    15  H    0.000000   0.000000   0.000000   0.000000   0.000000   0.000026
    16  H    0.000000   0.000000  -0.000018   0.000015   0.000015   0.000000
    17  H   -0.000001  -0.000008   0.000054  -0.000134   0.000101   0.000521
    18  H   -0.019709  -0.023084   0.000000   0.000003   0.000000  -0.000009
    19  H    0.474885  -0.022712   0.000000   0.000000   0.000000   0.000006
    20  H   -0.022712   0.531761   0.000000   0.000000   0.000000  -0.000022
    21  H    0.000000   0.000000   0.495208  -0.028032  -0.027796   0.000000
    22  H    0.000000   0.000000  -0.028032   0.552459  -0.041934  -0.000004
    23  H    0.000000   0.000000  -0.027796  -0.041934   0.548187   0.000006
    24  H    0.000006  -0.000022   0.000000  -0.000004   0.000006   0.452103
    25  H    0.000006  -0.000024   0.000000   0.000000   0.000000  -0.020183
    26  H    0.000083   0.001123   0.000000   0.000000   0.000000   0.002983
             25         26
     1  C    0.000208   0.000001
     2  C   -0.001130   0.000845
     3  C   -0.000022  -0.000006
     4  C    0.003272   0.000289
     5  C   -0.058321   0.001511
     6  C    0.000048  -0.000005
     7  C    0.002462  -0.015898
     8  C   -0.000036   0.000256
     9  C    0.000000   0.000000
    10  C    0.416348  -0.021784
    11  N   -0.041509   0.317202
    12  O    0.000360   0.002171
    13  O    0.000000   0.000000
    14  H   -0.000004   0.000000
    15  H    0.002664   0.000039
    16  H    0.000000   0.000000
    17  H   -0.000063  -0.000049
    18  H   -0.000001  -0.000087
    19  H    0.000006   0.000083
    20  H   -0.000024   0.001123
    21  H    0.000000   0.000000
    22  H    0.000000   0.000000
    23  H    0.000000   0.000000
    24  H   -0.020183   0.002983
    25  H    0.510424  -0.001848
    26  H   -0.001848   0.329301
 Mulliken atomic charges:
              1
     1  C   -0.182227
     2  C   -0.255892
     3  C   -0.252251
     4  C   -0.325054
     5  C    0.044013
     6  C    0.442611
     7  C    0.764766
     8  C   -0.575610
     9  C   -0.189126
    10  C   -0.167406
    11  N   -0.788481
    12  O   -0.636273
    13  O   -0.663493
    14  H    0.203683
    15  H    0.191439
    16  H    0.216231
    17  H    0.257029
    18  H    0.205473
    19  H    0.211116
    20  H    0.169108
    21  H    0.189157
    22  H    0.166887
    23  H    0.169736
    24  H    0.233344
    25  H    0.187348
    26  H    0.383872
 Sum of Mulliken atomic charges =   0.00000
 Mulliken charges with hydrogens summed into heavy atoms:
              1
     1  C    0.021457
     2  C   -0.064454
     3  C   -0.036020
     4  C   -0.068024
     5  C    0.044013
     6  C    0.442611
     7  C    0.764766
     8  C    0.010087
     9  C    0.336654
    10  C    0.253286
    11  N   -0.404609
    12  O   -0.636273
    13  O   -0.663493
 Sum of Mulliken charges with hydrogens summed into heavy atoms =   0.00000
 DipInt: DoE/N= T F RetVal/Mat= T F Init=T NMatP=  1 IDeriv=0 Min/MaxMlt=  0  4
 Entering OneElI...
 OneElI was handed    33426601 working-precision words.
 Multipole integrals L=0 to 4 MinM= 0 MaxM= 0.
 Requested accuracy = 0.1000D-12
 PrsmSu:  NPrtUS=   1 ThrOK=F IAlg=1 NPAlg=1 LenDen=           0.
 Prism:   IPart=     0 DynPar=F LinDyn=F Incr=          26.
 PRISM was handed    33194939 working-precision words and  2669 shell-pairs
 IPart=  0 NShTot=        2669 NBatch=          58 AvBLen=        46.0
 PrSmSu:  NxtVal=             27.
 Electronic moments (au):
        -96.00000000          0.53682719          0.74844656          0.86907438
      -1865.08834470       -844.94196047       -197.89582887          3.44098416
          5.46548062         -0.41819808      -2177.25501857        424.11299869
        -38.78006345       1530.74436255       1061.86112628      -1154.15066183
       -458.86436037         23.70005136        102.51531495        282.01336280
     -62289.28466371     -18078.67730727      -1407.47405881       4595.70028887
      -4136.80241274      -2962.00474007       -436.11331795       -641.90756233
        163.80998468     -12972.48037805      -5169.86036442      -1433.00888620
         13.97435873        496.72418936        535.67376828
 Electronic spatial extent (au):  <R**2>=           2907.9261
 DipInt: DoE/N= F T RetVal/Mat= T F Init=T NMatP=  1 IDeriv=0 Min/MaxMlt=  0  4
 Nuclear    moments (au):
         96.00000000          0.00000000          0.00000000          0.00000000
       1808.32914051        793.27144408        139.24129795          0.00000000
          0.00000000          0.00000000       2221.90878436       -442.87159224
         37.21719285      -1546.73629119      -1039.66404909       1194.33516556
        470.40915898        -27.89258740        -96.47667349       -299.14193847
      56031.10587260      15409.54601353        720.56892320      -4665.64398896
       4230.97853264       3114.58898652        459.99653950        651.38849458
       -161.22025196      11416.68263006       3949.32013163        813.49580753
          0.03195399       -465.31005278       -485.62595730
 Total      moments (au):
          0.00000000          0.53682719          0.74844656          0.86907438
        -56.75920418        -51.67051638        -58.65453092          3.44098416
          5.46548062         -0.41819808         44.65376579        -18.75859355
         -1.56287060        -15.99192864         22.19707719         40.18450373
         11.54479860         -4.19253604          6.03864146        -17.12857567
      -6258.17879112      -2669.13129374       -686.90513561        -69.94370009
         94.17611990        152.58424645         23.88322156          9.48093225
          2.58973271      -1555.79774798      -1220.54023279       -619.51307867
         14.00631271         31.41413658         50.04781098
 Traceless Quadrup. (au):
         -1.06445369          4.02423411         -2.95978043          3.44098416
          5.46548062         -0.41819808
 Charge=              0.0000 electrons
 Dipole moment (field-independent basis, Debye):
    X=              1.3645    Y=              1.9024    Z=              2.2090  Tot=              3.2187
 Quadrupole moment (field-independent basis, Debye-Ang):
   XX=            -76.3431   YY=            -69.4986   ZZ=            -78.8923
   XY=              4.6282   XZ=              7.3513   YZ=             -0.5625
 Traceless Quadrupole moment (field-independent basis, Debye-Ang):
   XX=             -1.4317   YY=              5.4127   ZZ=             -3.9810
   XY=              4.6282   XZ=              7.3513   YZ=             -0.5625
 Octapole moment (field-independent basis, Debye-Ang**2):
  XXX=             31.7828  YYY=            -13.3516  ZZZ=             -1.1124  XYY=            -11.3824
  XXY=             15.7990  XXZ=             28.6018  XZZ=              8.2171  YZZ=             -2.9841
  YYZ=              4.2981  XYZ=            -12.1915
 Hexadecapole moment (field-independent basis, Debye-Ang**3):
 XXXX=          -2357.1301 YYYY=          -1005.3228 ZZZZ=           -258.7214 XXXY=            -26.3441
 XXXZ=             35.4712 YYYX=             57.4705 YYYZ=              8.9956 ZZZX=              3.5710
 ZZZY=              0.9754 XXYY=           -585.9880 XXZZ=           -459.7139 YYZZ=           -233.3383
 XXYZ=              5.2754 YYXZ=             11.8321 ZZXY=             18.8504
 N-N= 7.710144968579D+02 E-N=-2.923370924150D+03  KE= 5.890039498194D+02
 Entering OneElI...
 OneElI was handed    33328048 working-precision words.
 Calculate electrostatic properties
    NBasis =   221  MinDer = 0  MaxDer = 0
    NGrid  =    26  NMatD  =   1
 Requested accuracy = 0.1000D-12
 PrsmSu:  NPrtUS=   2 ThrOK=T IAlg=1 NPAlg=1 LenDen=           0.
 Prism:   IPart=     0 DynPar=F LinDyn=F Incr=         320.
 PRISM was handed    16519246 working-precision words and  2463 shell-pairs
 PRISM was handed    16519246 working-precision words and  2463 shell-pairs
 IPart=  0 NShTot=       32344 NBatch=        1244 AvBLen=        26.0
 IPart=  1 NShTot=       31694 NBatch=        1219 AvBLen=        26.0
 PrSmSu:  NxtVal=            641.
 --------------------------------------------------------
       Center         ----      EFG at Nuclei      ----
                      3XX-RR        3YY-RR        3ZZ-RR
 --------------------------------------------------------
     1   Atom        0.127722      0.173012     -0.300734
     2   Atom        0.108547      0.087982     -0.196529
     3   Atom        0.057405      0.148029     -0.205434
     4   Atom        0.058310      0.124103     -0.182413
     5   Atom        0.087254      0.213536     -0.300790
     6   Atom        0.255173     -0.057173     -0.198000
     7   Atom       -0.190354      0.084073      0.106281
     8   Atom       -0.001465      0.024134     -0.022669
     9   Atom        0.056111     -0.210805      0.154694
    10   Atom       -0.089743      0.119223     -0.029480
    11   Atom        0.346078     -0.203116     -0.142962
    12   Atom        0.284496      0.129044     -0.413540
    13   Atom        0.382407     -1.835448      1.453040
    14   Atom       -0.005038     -0.123634      0.128671
    15   Atom        0.086031     -0.250817      0.164786
    16   Atom       -0.248270      0.128994      0.119277
    17   Atom       -0.007977     -0.121686      0.129663
    18   Atom        0.083360     -0.098317      0.014957
    19   Atom       -0.182522      0.108366      0.074156
    20   Atom        0.133596     -0.123310     -0.010286
    21   Atom       -0.008309     -0.138358      0.146667
    22   Atom       -0.142893      0.129707      0.013186
    23   Atom        0.118252      0.131528     -0.249779
    24   Atom        0.124424      0.042274     -0.166698
    25   Atom        0.129771     -0.262177      0.132406
    26   Atom        0.196857      0.006957     -0.203814
 --------------------------------------------------------
                        XY            XZ            YZ
 --------------------------------------------------------
     1   Atom        0.047056     -0.172561      0.028298
     2   Atom       -0.015888     -0.124600      0.028658
     3   Atom        0.033149     -0.105030      0.022033
     4   Atom        0.007924     -0.101402      0.025922
     5   Atom       -0.012839     -0.146432      0.051251
     6   Atom       -0.171727     -0.205042      0.080463
     7   Atom       -0.188507      0.388047      0.201878
     8   Atom        0.003618     -0.052917      0.004745
     9   Atom        0.255147      0.073047     -0.131449
    10   Atom        0.058682     -0.183611      0.137148
    11   Atom        0.494954     -0.553527     -0.315606
    12   Atom       -1.004047      0.555086     -0.772476
    13   Atom        0.050857      0.474727     -0.345103
    14   Atom        0.200672      0.076866     -0.095385
    15   Atom       -0.149825      0.017665      0.019953
    16   Atom       -0.075659      0.141397      0.023601
    17   Atom        0.192561      0.080853     -0.095412
    18   Atom       -0.125855      0.085965      0.184118
    19   Atom        0.123738      0.149827     -0.055049
    20   Atom       -0.057137     -0.056143     -0.206666
    21   Atom       -0.201533      0.041951      0.046175
    22   Atom        0.038577     -0.197867      0.016259
    23   Atom        0.001654      0.110813      0.018847
    24   Atom        0.037613      0.055521     -0.182687
    25   Atom       -0.061299      0.006253      0.083165
    26   Atom       -0.009400     -0.087645     -0.269403
 --------------------------------------------------------


 ---------------------------------------------------------------------------------
              Nuclear Quadrupole in Principal Axis System
 ---------------------------------------------------------------------------------

       Atom             a.u.   MegaHertz   Gauss  10(-4) cm-1        Axes

              Baa    -0.3649   -48.971   -17.474   -16.335  0.3362 -0.0788  0.9385
     1 C(13)  Bbb     0.1471    19.736     7.042     6.583 -0.5853  0.7632  0.2738
              Bcc     0.2179    29.235    10.432     9.752  0.7378  0.6413 -0.2105
 
              Baa    -0.2424   -32.525   -11.606   -10.849  0.3312 -0.0657  0.9413
     2 C(13)  Bbb     0.0810    10.874     3.880     3.627  0.3254  0.9443 -0.0486
              Bcc     0.1613    21.651     7.726     7.222  0.8857 -0.3224 -0.3342
 
              Baa    -0.2448   -32.853   -11.723   -10.959  0.3351 -0.0809  0.9387
     3 C(13)  Bbb     0.0854    11.466     4.092     3.825  0.8749 -0.3431 -0.3419
              Bcc     0.1594    21.387     7.631     7.134  0.3497  0.9358 -0.0442
 
              Baa    -0.2216   -29.730   -10.609    -9.917  0.3416 -0.0781  0.9366
     4 C(13)  Bbb     0.0953    12.784     4.561     4.264  0.9397  0.0464 -0.3388
              Bcc     0.1263    16.947     6.047     5.653 -0.0170  0.9959  0.0892
 
              Baa    -0.3534   -47.416   -16.919   -15.816  0.3123 -0.0785  0.9467
     5 C(13)  Bbb     0.1273    17.089     6.098     5.700  0.9130  0.3003 -0.2763
              Bcc     0.2260    30.328    10.822    10.116 -0.2626  0.9506  0.1655
 
              Baa    -0.2781   -37.318   -13.316   -12.448  0.3346 -0.0818  0.9388
     6 C(13)  Bbb    -0.1326   -17.795    -6.350    -5.936  0.3799  0.9234 -0.0549
              Bcc     0.4107    55.112    19.665    18.384  0.8624 -0.3750 -0.3401
 
              Baa    -0.5694   -76.414   -27.266   -25.489  0.7469  0.3833 -0.5434
     7 C(13)  Bbb     0.1800    24.151     8.617     8.056 -0.4632  0.8862 -0.0116
              Bcc     0.3895    52.263    18.649    17.433  0.4771  0.2604  0.8394
 
              Baa    -0.0664    -8.914    -3.181    -2.973  0.6324 -0.0657  0.7719
     8 C(13)  Bbb     0.0245     3.291     1.174     1.098  0.0510  0.9978  0.0432
              Bcc     0.0419     5.623     2.006     1.876  0.7730 -0.0120 -0.6343
 
              Baa    -0.4056   -54.428   -19.421   -18.155 -0.4982  0.8274  0.2591
     9 C(13)  Bbb     0.1933    25.940     9.256     8.653  0.3837 -0.0575  0.9217
              Bcc     0.2123    28.487    10.165     9.502  0.7775  0.5586 -0.2888
 
              Baa    -0.2904   -38.963   -13.903   -12.997  0.6891 -0.3169  0.6516
    10 C(13)  Bbb     0.0796    10.677     3.810     3.562  0.6903  0.5605 -0.4574
              Bcc     0.2108    28.286    10.093     9.435 -0.2203  0.7651  0.6051
 
              Baa    -0.5054   -19.492    -6.955    -6.502  0.6364 -0.3001  0.7106
    11 N(14)  Bbb    -0.4890   -18.860    -6.730    -6.291 -0.1661  0.8463  0.5062
              Bcc     0.9944    38.352    13.685    12.793  0.7533  0.4401 -0.4887
 
              Baa    -0.9936    71.895    25.654    23.982  0.2440  0.6883  0.6831
    12 O(17)  Bbb    -0.6464    46.771    16.689    15.601  0.7241  0.3393 -0.6005
              Bcc     1.6400  -118.667   -42.343   -39.583  0.6451 -0.6412  0.4156
 
              Baa    -1.8758   135.731    48.432    45.275 -0.0454  0.9930  0.1094
    13 O(17)  Bbb     0.2159   -15.621    -5.574    -5.211  0.9379  0.0800 -0.3376
              Bcc     1.6599  -120.110   -42.858   -40.064  0.3439 -0.0873  0.9349
 
              Baa    -0.3079  -164.289   -58.622   -54.801 -0.5785  0.7697  0.2700
    14 H(1)   Bbb     0.1439    76.800    27.404    25.618  0.7441  0.6336 -0.2118
              Bcc     0.1640    87.489    31.218    29.183  0.3341 -0.0784  0.9393
 
              Baa    -0.3091  -164.934   -58.853   -55.016  0.3561  0.9330 -0.0526
    15 H(1)   Bbb     0.1397    74.527    26.593    24.859  0.8739 -0.3524 -0.3348
              Bcc     0.1694    90.408    32.260    30.157  0.3309 -0.0733  0.9408
 
              Baa    -0.3106  -165.748   -59.143   -55.288  0.9320  0.1774 -0.3162
    16 H(1)   Bbb     0.1431    76.356    27.246    25.470 -0.1411  0.9808  0.1343
              Bcc     0.1675    89.392    31.897    29.818  0.3340 -0.0806  0.9391
 
              Baa    -0.3017  -160.995   -57.447   -53.702 -0.5790  0.7665  0.2780
    17 H(1)   Bbb     0.1342    71.629    25.559    23.893  0.7397  0.6372 -0.2164
              Bcc     0.1675    89.366    31.888    29.809  0.3431 -0.0803  0.9359
 
              Baa    -0.2955  -157.690   -56.268   -52.600  0.3730  0.7491 -0.5475
    18 H(1)   Bbb     0.1417    75.581    26.969    25.211  0.8083  0.0273  0.5881
              Bcc     0.1539    82.109    29.299    27.389 -0.4555  0.6619  0.5953
 
              Baa    -0.2967  -158.322   -56.493   -52.811  0.8621 -0.3170 -0.3953
    19 H(1)   Bbb     0.1429    76.219    27.197    25.424  0.3693 -0.1410  0.9185
              Bcc     0.1539    82.103    29.296    27.387  0.3470  0.9379  0.0045
 
              Baa    -0.2958  -157.810   -56.311   -52.640  0.1821  0.7791  0.5998
    20 H(1)   Bbb     0.1381    73.674    26.289    24.575  0.6796 -0.5406  0.4959
              Bcc     0.1577    84.136    30.022    28.065  0.7106  0.3173 -0.6279
 
              Baa    -0.2938  -156.775   -55.941   -52.294  0.5846  0.7992 -0.1395
    21 H(1)   Bbb     0.1361    72.630    25.916    24.227  0.7359 -0.5948 -0.3235
              Bcc     0.1577    84.145    30.025    28.068  0.3415 -0.0865  0.9359
 
              Baa    -0.2817  -150.275   -53.622   -50.126  0.8237 -0.0993  0.5583
    22 H(1)   Bbb     0.1300    69.368    24.752    23.139 -0.1603  0.9036  0.3973
              Bcc     0.1516    80.907    28.870    26.988 -0.5439 -0.4167  0.7284
 
              Baa    -0.2813  -150.104   -53.561   -50.069 -0.2668 -0.0429  0.9628
    23 H(1)   Bbb     0.1300    69.351    24.746    23.133 -0.3275  0.9436 -0.0488
              Bcc     0.1513    80.753    28.815    26.936  0.9064  0.3284  0.2658
 
              Baa    -0.2836  -151.336   -54.000   -50.480 -0.1618  0.4967  0.8527
    24 H(1)   Bbb     0.1339    71.446    25.494    23.832  0.9393 -0.1875  0.2874
              Bcc     0.1497    79.889    28.507    26.648  0.3026  0.8475 -0.4362
 
              Baa    -0.2880  -153.659   -54.829   -51.255  0.1453  0.9702 -0.1941
    25 H(1)   Bbb     0.1361    72.604    25.907    24.218  0.9011 -0.0487  0.4308
              Bcc     0.1519    81.055    28.923    27.037 -0.4085  0.2375  0.8813
 
              Baa    -0.3979  -212.305   -75.756   -70.817  0.1301  0.5514  0.8241
    26 H(1)   Bbb     0.1569    83.704    29.868    27.921 -0.6295  0.6881 -0.3609
              Bcc     0.2410   128.601    45.888    42.897  0.7660  0.4718 -0.4366
 

 ---------------------------------------------------------------------------------

 No NMR shielding tensors so no spin-rotation constants.
 Leave Link  601 at Sat Feb 17 21:06:41 2018, MaxMem=   33554432 cpu:       0.7
 Merz-Kollman atomic radii used.
 Read replacement radii for each type of atom:
 Atom Element Radius
    1     6    1.50
    2     6    1.50
    3     6    1.50
    4     6    1.50
    5     6    1.50
    6     6    1.50
    7     6    1.50
    8     6    1.50
    9     6    1.50
   10     6    1.50
   11     7    1.50
   12     8    1.40
   13     8    1.40
   14     1    1.20
   15     1    1.20
   16     1    1.20
   17     1    1.20
   18     1    1.20
   19     1    1.20
   20     1    1.20
   21     1    1.20
   22     1    1.20
   23     1    1.20
   24     1    1.20
   25     1    1.20
   26     1    1.20
 Generate VDW surfaces: Layer= 4 Dens= 1 Start= 1.400 Inc= 0.200

 **********************************************************************

            Electrostatic Properties Using The SCF Density

 **********************************************************************

       Atomic Center    1 is at  -2.330988  1.961551  0.418356
       Atomic Center    2 is at  -1.024554  2.194073 -0.029006
       Atomic Center    3 is at  -2.832825  0.669327  0.489662
       Atomic Center    4 is at  -0.720817 -0.189693 -0.341832
       Atomic Center    5 is at  -0.218469  1.120586 -0.407970
       Atomic Center    6 is at  -2.024557 -0.414369  0.106845
       Atomic Center    7 is at   2.778203 -0.339038  0.038108
       Atomic Center    8 is at   3.748541 -0.660803  1.165720
       Atomic Center    9 is at  -1.841051 -2.778766 -0.180734
       Atomic Center   10 is at   1.206977  1.343745 -0.880088
       Atomic Center   11 is at   2.221891  0.909431  0.079865
       Atomic Center   12 is at   2.530064 -1.149316 -0.849697
       Atomic Center   13 is at  -2.605382 -1.645750  0.204951
       Atomic Center   14 is at  -2.960548  2.797644  0.711642
       Atomic Center   15 is at  -0.640362  3.209852 -0.086302
       Atomic Center   16 is at  -3.843377  0.468571  0.831570
       Atomic Center   17 is at  -0.076959 -1.007502 -0.645100
       Atomic Center   18 is at   3.339648 -1.483516  1.761493
       Atomic Center   19 is at   4.688123 -1.010753  0.728650
       Atomic Center   20 is at   3.956273  0.186467  1.826782
       Atomic Center   21 is at  -2.489226 -3.643066 -0.024267
       Atomic Center   22 is at  -0.937318 -2.885031  0.433153
       Atomic Center   23 is at  -1.549920 -2.728293 -1.237843
       Atomic Center   24 is at   1.401012  0.779138 -1.795447
       Atomic Center   25 is at   1.371273  2.405491 -1.093573
       Atomic Center   26 is at   2.347942  1.465826  0.913801
      ESP Fit Center   27 is at  -2.330988  1.961551  2.518356
      ESP Fit Center   28 is at  -1.280988  1.961551  2.237009
      ESP Fit Center   29 is at  -1.805988  2.870878  2.237009
      ESP Fit Center   30 is at  -3.380988  1.961551  2.237009
      ESP Fit Center   31 is at  -1.575492  3.615857  1.468356
      ESP Fit Center   32 is at  -2.589810  3.761693 -0.631644
      ESP Fit Center   33 is at  -4.075973  2.473925 -0.631644
      ESP Fit Center   34 is at  -2.855988  2.870878 -1.400298
      ESP Fit Center   35 is at  -3.380988  1.961551 -1.400298
      ESP Fit Center   36 is at  -2.330988  1.961551 -1.681644
      ESP Fit Center   37 is at  -1.024554  2.194073  2.070994
      ESP Fit Center   38 is at   0.025446  2.194073  1.789647
      ESP Fit Center   39 is at  -0.499554  3.103400  1.789647
      ESP Fit Center   40 is at  -0.499554  1.284746  1.789647
      ESP Fit Center   41 is at  -2.215518  3.568519 -1.079006
      ESP Fit Center   42 is at  -0.499554  3.103400 -1.847660
      ESP Fit Center   43 is at  -1.549554  3.103400 -1.847660
      ESP Fit Center   44 is at  -2.074554  2.194073 -1.847660
      ESP Fit Center   45 is at  -1.024554  2.194073 -2.129006
      ESP Fit Center   46 is at  -2.832825  0.669327  2.589662
      ESP Fit Center   47 is at  -1.782825  0.669327  2.308315
      ESP Fit Center   48 is at  -3.357825  1.578654  2.308315
      ESP Fit Center   49 is at  -3.357825 -0.239999  2.308315
      ESP Fit Center   50 is at  -2.307825 -0.239999  2.308315
      ESP Fit Center   51 is at  -4.577810  1.181701 -0.560338
      ESP Fit Center   52 is at  -3.882825  0.669327 -1.328991
      ESP Fit Center   53 is at  -2.832825  0.669327 -1.610338
      ESP Fit Center   54 is at  -0.720817 -0.189693  1.758168
      ESP Fit Center   55 is at   0.329183 -0.189693  1.476821
      ESP Fit Center   56 is at  -0.195817 -1.099019  1.476821
      ESP Fit Center   57 is at  -1.770817 -0.189693 -2.160486
      ESP Fit Center   58 is at  -1.245817 -1.099019 -2.160486
      ESP Fit Center   59 is at  -0.720817 -0.189693 -2.441832
      ESP Fit Center   60 is at  -0.218469  1.120586  1.692030
      ESP Fit Center   61 is at  -0.743469  2.029913 -2.226624
      ESP Fit Center   62 is at  -1.268469  1.120586 -2.226624
      ESP Fit Center   63 is at  -0.218469  1.120586 -2.507970
      ESP Fit Center   64 is at  -2.024557 -0.414369  2.206845
      ESP Fit Center   65 is at  -0.974557 -0.414369  1.925498
      ESP Fit Center   66 is at  -1.499557 -1.323696  1.925498
      ESP Fit Center   67 is at  -2.549557  0.494958 -1.711808
      ESP Fit Center   68 is at  -3.074557 -0.414369 -1.711808
      ESP Fit Center   69 is at  -2.024557 -0.414369 -1.993155
      ESP Fit Center   70 is at   1.728203 -0.339038  1.856762
      ESP Fit Center   71 is at   1.033217 -0.851412  1.088108
      ESP Fit Center   72 is at   1.587238 -1.713485  1.088108
      ESP Fit Center   73 is at   4.596856 -0.339038 -1.011892
      ESP Fit Center   74 is at   4.308151  0.644200 -1.011892
      ESP Fit Center   75 is at   3.303203  0.570288 -1.780545
      ESP Fit Center   76 is at   3.748541 -0.660803  3.265720
      ESP Fit Center   77 is at   5.567194 -0.660803  2.215720
      ESP Fit Center   78 is at   2.003556 -0.148429  2.215720
      ESP Fit Center   79 is at   5.278490 -1.644041  2.215720
      ESP Fit Center   80 is at   4.504037  0.993503  0.115720
      ESP Fit Center   81 is at  -1.841051 -2.778766  1.919266
      ESP Fit Center   82 is at  -0.648115 -4.507032 -0.180734
      ESP Fit Center   83 is at  -1.085555 -4.433071 -1.230734
      ESP Fit Center   84 is at   3.025630  1.343745 -1.930088
      ESP Fit Center   85 is at   0.681977  2.253072 -2.698741
      ESP Fit Center   86 is at   1.696891  0.000104  1.898518
      ESP Fit Center   87 is at   4.081348  1.885350  0.079865
      ESP Fit Center   88 is at   3.414827  2.637697  0.079865
      ESP Fit Center   89 is at   2.475018  2.994120  0.079865
      ESP Fit Center   90 is at   3.751839  1.892669 -0.970135
      ESP Fit Center   91 is at   3.271891  0.909431 -1.738789
      ESP Fit Center   92 is at   1.156830 -2.147029  0.130303
      ESP Fit Center   93 is at   2.005535 -2.763649  0.130303
      ESP Fit Center   94 is at   3.054592 -2.763649  0.130303
      ESP Fit Center   95 is at   1.550064 -2.846726 -0.849697
      ESP Fit Center   96 is at   2.530064 -3.109316 -0.849697
      ESP Fit Center   97 is at   3.510064 -2.846726 -0.849697
      ESP Fit Center   98 is at   4.227473 -2.129316 -0.849697
      ESP Fit Center   99 is at   4.227473 -1.149316 -1.829697
      ESP Fit Center  100 is at   3.903297 -0.151604 -1.829697
      ESP Fit Center  101 is at   1.156830 -2.147029 -1.829697
      ESP Fit Center  102 is at   2.005535 -2.763649 -1.829697
      ESP Fit Center  103 is at   3.054592 -2.763649 -1.829697
      ESP Fit Center  104 is at   3.903297 -2.147029 -1.829697
      ESP Fit Center  105 is at   3.510064 -1.149316 -2.547107
      ESP Fit Center  106 is at   3.020064 -0.300611 -2.547107
      ESP Fit Center  107 is at   1.550064 -1.149316 -2.547107
      ESP Fit Center  108 is at   2.040064 -1.998021 -2.547107
      ESP Fit Center  109 is at   3.020064 -1.998021 -2.547107
      ESP Fit Center  110 is at   2.530064 -1.149316 -2.809697
      ESP Fit Center  111 is at  -2.605382 -1.645750  2.164951
      ESP Fit Center  112 is at  -1.625382 -1.645750  1.902361
      ESP Fit Center  113 is at  -3.585382 -1.645750  1.902361
      ESP Fit Center  114 is at  -3.095382 -2.494455  1.902361
      ESP Fit Center  115 is at  -2.115382 -2.494455  1.902361
      ESP Fit Center  116 is at  -4.302792 -1.645750  1.184951
      ESP Fit Center  117 is at  -3.978615 -2.643463  1.184951
      ESP Fit Center  118 is at  -4.565382 -1.645750  0.204951
      ESP Fit Center  119 is at  -4.302792 -2.625750  0.204951
      ESP Fit Center  120 is at  -3.978615 -0.648038 -0.775049
      ESP Fit Center  121 is at  -4.302792 -1.645750 -0.775049
      ESP Fit Center  122 is at  -3.978615 -2.643463 -0.775049
      ESP Fit Center  123 is at  -3.585382 -1.645750 -1.492459
      ESP Fit Center  124 is at  -2.960548  2.797644  2.391642
      ESP Fit Center  125 is at  -2.655400  3.736793  2.070791
      ESP Fit Center  126 is at  -3.759436  3.378070  2.070791
      ESP Fit Center  127 is at  -3.759436  2.217219  2.070791
      ESP Fit Center  128 is at  -1.736581  3.824674  1.230791
      ESP Fit Center  129 is at  -2.683097  4.371145  1.230791
      ESP Fit Center  130 is at  -3.759436  4.181358  1.230791
      ESP Fit Center  131 is at  -4.461965  3.344115  1.230791
      ESP Fit Center  132 is at  -4.461965  2.251173  1.230791
      ESP Fit Center  133 is at  -2.683097  4.371145  0.192494
      ESP Fit Center  134 is at  -3.759436  4.181358  0.192494
      ESP Fit Center  135 is at  -4.461965  3.344115  0.192494
      ESP Fit Center  136 is at  -4.461965  2.251173  0.192494
      ESP Fit Center  137 is at  -3.759436  3.378070 -0.647506
      ESP Fit Center  138 is at   0.347118  3.209852  1.272847
      ESP Fit Center  139 is at  -0.335214  4.149001  1.272847
      ESP Fit Center  140 is at  -1.439249  3.790278  1.272847
      ESP Fit Center  141 is at   0.957413  3.209852  0.432847
      ESP Fit Center  142 is at   0.583605  4.236882  0.432847
      ESP Fit Center  143 is at  -0.362911  4.783353  0.432847
      ESP Fit Center  144 is at  -1.439249  4.593566  0.432847
      ESP Fit Center  145 is at   0.583605  4.236882 -0.605450
      ESP Fit Center  146 is at  -0.362911  4.783353 -0.605450
      ESP Fit Center  147 is at  -1.439249  4.593566 -0.605450
      ESP Fit Center  148 is at  -0.335214  4.149001 -1.445450
      ESP Fit Center  149 is at  -1.439249  3.790278 -1.445450
      ESP Fit Center  150 is at  -3.843377  0.468571  2.511570
      ESP Fit Center  151 is at  -4.642264  1.048996  2.190718
      ESP Fit Center  152 is at  -4.642264 -0.111855  2.190718
      ESP Fit Center  153 is at  -3.538229 -0.470578  2.190718
      ESP Fit Center  154 is at  -4.642264  1.852284  1.350718
      ESP Fit Center  155 is at  -5.344794  1.015042  1.350718
      ESP Fit Center  156 is at  -5.344794 -0.077901  1.350718
      ESP Fit Center  157 is at  -4.642264 -0.915143  1.350718
      ESP Fit Center  158 is at  -4.642264  1.852284  0.312421
      ESP Fit Center  159 is at  -5.344794  1.015042  0.312421
      ESP Fit Center  160 is at  -5.344794 -0.077901  0.312421
      ESP Fit Center  161 is at  -4.642264 -0.915143  0.312421
      ESP Fit Center  162 is at  -4.642264  1.048996 -0.527579
      ESP Fit Center  163 is at  -4.642264 -0.111855 -0.527579
      ESP Fit Center  164 is at   0.200492 -2.581003 -1.164249
      ESP Fit Center  165 is at   0.910521 -1.007502 -2.004249
      ESP Fit Center  166 is at   0.228189 -1.946650 -2.004249
      ESP Fit Center  167 is at  -0.076959 -1.007502 -2.325100
      ESP Fit Center  168 is at   3.339648 -1.483516  3.441493
      ESP Fit Center  169 is at   4.327128 -1.483516  3.120641
      ESP Fit Center  170 is at   2.540761 -0.903091  3.120641
      ESP Fit Center  171 is at   2.540761 -2.063942  3.120641
      ESP Fit Center  172 is at   3.644796 -2.422665  3.120641
      ESP Fit Center  173 is at   1.838231 -0.937045  2.280641
      ESP Fit Center  174 is at   1.838231 -2.029988  2.280641
      ESP Fit Center  175 is at   2.540761 -2.867230  2.280641
      ESP Fit Center  176 is at   3.617099 -3.057017  2.280641
      ESP Fit Center  177 is at   4.563615 -2.510546  2.280641
      ESP Fit Center  178 is at   1.838231 -2.029988  1.242344
      ESP Fit Center  179 is at   2.540761 -2.867230  1.242344
      ESP Fit Center  180 is at   3.617099 -3.057017  1.242344
      ESP Fit Center  181 is at   5.675602 -1.010753  2.087799
      ESP Fit Center  182 is at   6.285898 -1.010753  1.247799
      ESP Fit Center  183 is at   5.912090  0.016277  1.247799
      ESP Fit Center  184 is at   4.965574 -2.584254  1.247799
      ESP Fit Center  185 is at   5.912090 -2.037782  1.247799
      ESP Fit Center  186 is at   6.285898 -1.010753  0.209501
      ESP Fit Center  187 is at   5.912090  0.016277  0.209501
      ESP Fit Center  188 is at   4.965574 -2.584254  0.209501
      ESP Fit Center  189 is at   5.912090 -2.037782  0.209501
      ESP Fit Center  190 is at   5.675602 -1.010753 -0.630499
      ESP Fit Center  191 is at   4.993271 -0.071604 -0.630499
      ESP Fit Center  192 is at   4.993271 -1.949901 -0.630499
      ESP Fit Center  193 is at   4.688123 -1.010753 -0.951350
      ESP Fit Center  194 is at   3.956273  0.186467  3.506782
      ESP Fit Center  195 is at   4.943752  0.186467  3.185931
      ESP Fit Center  196 is at   4.261420  1.125616  3.185931
      ESP Fit Center  197 is at   3.157385  0.766893  3.185931
      ESP Fit Center  198 is at   3.157385 -0.393958  3.185931
      ESP Fit Center  199 is at   5.554048  0.186467  2.345931
      ESP Fit Center  200 is at   5.180239  1.213497  2.345931
      ESP Fit Center  201 is at   4.233723  1.759969  2.345931
      ESP Fit Center  202 is at   5.180239  1.213497  1.307634
      ESP Fit Center  203 is at   4.233723  1.759969  1.307634
      ESP Fit Center  204 is at  -2.489226 -3.643066  1.655733
      ESP Fit Center  205 is at  -3.288114 -4.223492  1.334881
      ESP Fit Center  206 is at  -2.184078 -4.582215  1.334881
      ESP Fit Center  207 is at  -3.990644 -3.096595  0.494881
      ESP Fit Center  208 is at  -3.990644 -4.189537  0.494881
      ESP Fit Center  209 is at  -3.288114 -5.026780  0.494881
      ESP Fit Center  210 is at  -2.211775 -5.216567  0.494881
      ESP Fit Center  211 is at  -3.990644 -3.096595 -0.543416
      ESP Fit Center  212 is at  -3.990644 -4.189537 -0.543416
      ESP Fit Center  213 is at  -3.288114 -5.026780 -0.543416
      ESP Fit Center  214 is at  -2.211775 -5.216567 -0.543416
      ESP Fit Center  215 is at  -3.288114 -4.223492 -1.383416
      ESP Fit Center  216 is at  -2.184078 -4.582215 -1.383416
      ESP Fit Center  217 is at  -0.937318 -2.885031  2.113153
      ESP Fit Center  218 is at   0.050161 -2.885031  1.792302
      ESP Fit Center  219 is at  -0.632170 -1.945882  1.792302
      ESP Fit Center  220 is at  -0.632170 -3.824179  1.792302
      ESP Fit Center  221 is at   0.660457 -2.885031  0.952302
      ESP Fit Center  222 is at   0.286649 -1.858001  0.952302
      ESP Fit Center  223 is at  -0.659867 -4.458532  0.952302
      ESP Fit Center  224 is at   0.286649 -3.912061  0.952302
      ESP Fit Center  225 is at   0.660457 -2.885031 -0.085996
      ESP Fit Center  226 is at   0.286649 -3.912061 -0.085996
      ESP Fit Center  227 is at   0.047855 -2.728293 -1.756992
      ESP Fit Center  228 is at  -2.348807 -1.344580 -1.756992
      ESP Fit Center  229 is at  -2.348807 -4.112007 -1.756992
      ESP Fit Center  230 is at  -1.272469 -4.301795 -1.756992
      ESP Fit Center  231 is at  -0.325953 -3.755323 -1.756992
      ESP Fit Center  232 is at  -0.562440 -2.728293 -2.596992
      ESP Fit Center  233 is at  -1.244772 -1.789145 -2.596992
      ESP Fit Center  234 is at  -2.348807 -2.147868 -2.596992
      ESP Fit Center  235 is at  -2.348807 -3.308719 -2.596992
      ESP Fit Center  236 is at  -1.244772 -3.667442 -2.596992
      ESP Fit Center  237 is at  -1.549920 -2.728293 -2.917843
      ESP Fit Center  238 is at   2.998787  0.779138 -2.314596
      ESP Fit Center  239 is at  -0.100406  0.232667 -2.314596
      ESP Fit Center  240 is at   0.602124 -0.604576 -2.314596
      ESP Fit Center  241 is at   2.388491  0.779138 -3.154596
      ESP Fit Center  242 is at   1.706160  1.718287 -3.154596
      ESP Fit Center  243 is at   0.602124  1.359564 -3.154596
      ESP Fit Center  244 is at   0.602124  0.198712 -3.154596
      ESP Fit Center  245 is at   1.706160 -0.160010 -3.154596
      ESP Fit Center  246 is at   1.401012  0.779138 -3.475447
      ESP Fit Center  247 is at   1.676421  3.344639  0.265575
      ESP Fit Center  248 is at   2.595240  3.432521 -0.574425
      ESP Fit Center  249 is at   1.648724  3.978992 -0.574425
      ESP Fit Center  250 is at   2.969048  2.405491 -1.612722
      ESP Fit Center  251 is at   2.595240  3.432521 -1.612722
      ESP Fit Center  252 is at   1.648724  3.978992 -1.612722
      ESP Fit Center  253 is at   0.572386  3.789204 -1.612722
      ESP Fit Center  254 is at   2.358752  2.405491 -2.452722
      ESP Fit Center  255 is at   1.676421  3.344639 -2.452722
      ESP Fit Center  256 is at   0.572386  2.985916 -2.452722
      ESP Fit Center  257 is at   1.371273  2.405491 -2.773573
      ESP Fit Center  258 is at   2.347942  1.465826  2.593801
      ESP Fit Center  259 is at   2.653090  2.404974  2.272949
      ESP Fit Center  260 is at   1.549054  2.046252  2.272949
      ESP Fit Center  261 is at   1.549054  0.885400  2.272949
      ESP Fit Center  262 is at   3.571909  2.492856  1.432949
      ESP Fit Center  263 is at   2.625393  3.039327  1.432949
      ESP Fit Center  264 is at   1.549054  2.849540  1.432949
      ESP Fit Center  265 is at   0.846525  2.012297  1.432949
      ESP Fit Center  266 is at   3.571909  2.492856  0.394652
      ESP Fit Center  267 is at   2.625393  3.039327  0.394652
      ESP Fit Center  268 is at  -2.330988  1.961551  2.818356
      ESP Fit Center  269 is at  -1.289667  1.961551  2.580681
      ESP Fit Center  270 is at  -1.810328  2.863362  2.580681
      ESP Fit Center  271 is at  -3.372309  1.961551  2.580681
      ESP Fit Center  272 is at  -1.551505  3.668381  1.914731
      ESP Fit Center  273 is at  -2.598027  3.818848 -1.078020
      ESP Fit Center  274 is at  -3.559766  3.379637 -1.078020
      ESP Fit Center  275 is at  -4.131377  2.490193 -1.078020
      ESP Fit Center  276 is at  -2.851649  2.863362 -1.743970
      ESP Fit Center  277 is at  -3.372309  1.961551 -1.743970
      ESP Fit Center  278 is at   0.016767  2.194073  2.133319
      ESP Fit Center  279 is at  -0.503893  3.095883  2.133319
      ESP Fit Center  280 is at  -0.503893  1.292262  2.133319
      ESP Fit Center  281 is at   0.553971  3.208529  1.467369
      ESP Fit Center  282 is at  -2.253331  3.612158 -1.525382
      ESP Fit Center  283 is at  -0.503893  3.095883 -2.191332
      ESP Fit Center  284 is at  -1.545214  3.095883 -2.191332
      ESP Fit Center  285 is at  -2.065875  2.194073 -2.191332
      ESP Fit Center  286 is at  -1.024554  2.194073 -2.429006
      ESP Fit Center  287 is at  -2.832825  0.669327  2.889662
      ESP Fit Center  288 is at  -1.791504  0.669327  2.651987
      ESP Fit Center  289 is at  -3.353486  1.571138  2.651987
      ESP Fit Center  290 is at  -3.353486 -0.232483  2.651987
      ESP Fit Center  291 is at  -2.312165 -0.232483  2.651987
      ESP Fit Center  292 is at  -0.956430  0.669327  1.986037
      ESP Fit Center  293 is at  -4.633214  1.197969 -1.006714
      ESP Fit Center  294 is at  -4.633214  0.140686 -1.006714
      ESP Fit Center  295 is at  -3.874146  0.669327 -1.672663
      ESP Fit Center  296 is at  -2.832825  0.669327 -1.910338
      ESP Fit Center  297 is at   0.320504 -0.189693  1.820493
      ESP Fit Center  298 is at  -0.200156 -1.091503  1.820493
      ESP Fit Center  299 is at  -1.762138 -0.189693 -2.504158
      ESP Fit Center  300 is at  -1.241477 -1.091503 -2.504158
      ESP Fit Center  301 is at  -0.720817 -0.189693 -2.741832
      ESP Fit Center  302 is at  -0.218469  1.120586  1.992030
      ESP Fit Center  303 is at  -0.739130  2.022396 -2.570296
      ESP Fit Center  304 is at  -1.259790  1.120586 -2.570296
      ESP Fit Center  305 is at  -0.218469  1.120586 -2.807970
      ESP Fit Center  306 is at  -2.024557 -0.414369  2.506845
      ESP Fit Center  307 is at  -0.983236 -0.414369  2.269170
      ESP Fit Center  308 is at  -1.503897 -1.316179  2.269170
      ESP Fit Center  309 is at  -2.545218  0.487441 -2.055480
      ESP Fit Center  310 is at  -3.065878 -0.414369 -2.055480
      ESP Fit Center  311 is at   0.977814 -0.867680  1.534484
      ESP Fit Center  312 is at   4.886314  0.676174 -0.495942
      ESP Fit Center  313 is at   4.654598 -0.339038 -1.458267
      ESP Fit Center  314 is at   4.356727  0.675418 -1.458267
      ESP Fit Center  315 is at   3.298863  0.562772 -2.124217
      ESP Fit Center  316 is at   3.748541 -0.660803  3.565720
      ESP Fit Center  317 is at   5.624937 -0.660803  2.662095
      ESP Fit Center  318 is at   1.948153 -0.132161  2.662095
      ESP Fit Center  319 is at   5.327065 -1.675259  2.662095
      ESP Fit Center  320 is at   5.207399  1.168548  0.631670
      ESP Fit Center  321 is at   4.269201 -2.941965  0.631670
      ESP Fit Center  322 is at  -1.841051 -2.778766  2.219266
      ESP Fit Center  323 is at  -2.361712 -3.680576  1.981592
      ESP Fit Center  324 is at  -1.320391 -5.059928 -0.714784
      ESP Fit Center  325 is at  -0.382193 -4.608116 -0.714784
      ESP Fit Center  326 is at  -3.641440 -3.307407 -1.677109
      ESP Fit Center  327 is at  -2.108090 -4.636062 -1.677109
      ESP Fit Center  328 is at  -0.021801  2.761831 -2.376464
      ESP Fit Center  329 is at   1.727637  2.245556 -3.042413
      ESP Fit Center  330 is at   0.686316  2.245556 -3.042413
      ESP Fit Center  331 is at   1.701230  0.007621  2.242190
      ESP Fit Center  332 is at   4.330002  1.924644  0.613915
      ESP Fit Center  333 is at   4.330002  1.924644 -0.454186
      ESP Fit Center  334 is at   3.680749  2.738781 -0.454186
      ESP Fit Center  335 is at   3.800415  1.923887 -1.416511
      ESP Fit Center  336 is at   1.113230 -2.178706  0.546920
      ESP Fit Center  337 is at   1.988881 -2.814904  0.546920
      ESP Fit Center  338 is at   1.755664 -3.191241 -0.351250
      ESP Fit Center  339 is at   2.793296 -3.317232 -0.351250
      ESP Fit Center  340 is at   3.770625 -2.946580 -0.351250
      ESP Fit Center  341 is at   4.713902 -1.149316 -1.348144
      ESP Fit Center  342 is at   0.895437 -2.597469 -1.348144
      ESP Fit Center  343 is at   1.755664 -3.191241 -1.348144
      ESP Fit Center  344 is at   2.793296 -3.317232 -1.348144
      ESP Fit Center  345 is at   3.770625 -2.946580 -1.348144
      ESP Fit Center  346 is at   4.463756 -2.164197 -1.348144
      ESP Fit Center  347 is at   4.281366 -1.149316 -2.246314
      ESP Fit Center  348 is at   3.946897 -0.119926 -2.246314
      ESP Fit Center  349 is at   1.113230 -2.178706 -2.246314
      ESP Fit Center  350 is at   1.988881 -2.814904 -2.246314
      ESP Fit Center  351 is at   3.071246 -2.814904 -2.246314
      ESP Fit Center  352 is at   3.946897 -2.178706 -2.246314
      ESP Fit Center  353 is at   3.501963 -1.149316 -2.867867
      ESP Fit Center  354 is at   3.016013 -0.307626 -2.867867
      ESP Fit Center  355 is at   1.558164 -1.149316 -2.867867
      ESP Fit Center  356 is at   2.044114 -1.991006 -2.867867
      ESP Fit Center  357 is at   3.016013 -1.991006 -2.867867
      ESP Fit Center  358 is at   2.530064 -1.149316 -3.089697
      ESP Fit Center  359 is at  -2.605382 -1.645750  2.444951
      ESP Fit Center  360 is at  -1.633482 -1.645750  2.223121
      ESP Fit Center  361 is at  -3.577281 -1.645750  2.223121
      ESP Fit Center  362 is at  -3.091332 -2.487440  2.223121
      ESP Fit Center  363 is at  -2.119432 -2.487440  2.223121
      ESP Fit Center  364 is at  -4.356684 -1.645750  1.601568
      ESP Fit Center  365 is at  -4.022215 -2.675140  1.601568
      ESP Fit Center  366 is at  -4.725762 -2.168377  0.703398
      ESP Fit Center  367 is at  -4.240009 -3.093903  0.703398
      ESP Fit Center  368 is at  -4.725762 -1.123123 -0.293496
      ESP Fit Center  369 is at  -4.725762 -2.168377 -0.293496
      ESP Fit Center  370 is at  -4.356684 -1.645750 -1.191666
      ESP Fit Center  371 is at  -4.022215 -2.675140 -1.191666
      ESP Fit Center  372 is at  -3.577281 -1.645750 -1.813219
      ESP Fit Center  373 is at  -2.960548  2.797644  2.631642
      ESP Fit Center  374 is at  -2.480548  3.629029  2.374411
      ESP Fit Center  375 is at  -3.440548  3.629029  2.374411
      ESP Fit Center  376 is at  -3.920548  2.797644  2.374411
      ESP Fit Center  377 is at  -2.446724  4.379031  1.671642
      ESP Fit Center  378 is at  -3.474372  4.379031  1.671642
      ESP Fit Center  379 is at  -4.305756  3.774995  1.671642
      ESP Fit Center  380 is at  -4.623317  2.797644  1.671642
      ESP Fit Center  381 is at  -2.000548  4.460413  0.711642
      ESP Fit Center  382 is at  -2.960548  4.717644  0.711642
      ESP Fit Center  383 is at  -3.920548  4.460413  0.711642
      ESP Fit Center  384 is at  -4.623317  3.757644  0.711642
      ESP Fit Center  385 is at  -4.880548  2.797644  0.711642
      ESP Fit Center  386 is at  -2.446724  4.379031 -0.248358
      ESP Fit Center  387 is at  -3.474372  4.379031 -0.248358
      ESP Fit Center  388 is at  -4.305756  3.774995 -0.248358
      ESP Fit Center  389 is at  -4.623317  2.797644 -0.248358
      ESP Fit Center  390 is at  -3.440548  3.629029 -0.951126
      ESP Fit Center  391 is at  -0.160362  4.041237  1.576467
      ESP Fit Center  392 is at  -1.120362  4.041237  1.576467
      ESP Fit Center  393 is at   1.022407  3.209852  0.873698
      ESP Fit Center  394 is at   0.704847  4.187203  0.873698
      ESP Fit Center  395 is at  -0.126538  4.791239  0.873698
      ESP Fit Center  396 is at  -1.154185  4.791239  0.873698
      ESP Fit Center  397 is at   1.022407  4.169852 -0.086302
      ESP Fit Center  398 is at   0.319638  4.872621 -0.086302
      ESP Fit Center  399 is at  -0.640362  5.129852 -0.086302
      ESP Fit Center  400 is at  -1.600362  4.872621 -0.086302
      ESP Fit Center  401 is at  -0.126538  4.791239 -1.046302
      ESP Fit Center  402 is at  -1.154185  4.791239 -1.046302
      ESP Fit Center  403 is at  -1.985570  4.187203 -1.046302
      ESP Fit Center  404 is at  -0.160362  4.041237 -1.749071
      ESP Fit Center  405 is at  -1.120362  4.041237 -1.749071
      ESP Fit Center  406 is at  -3.843377  0.468571  2.751570
      ESP Fit Center  407 is at  -4.323377  1.299955  2.494339
      ESP Fit Center  408 is at  -4.803377  0.468571  2.494339
      ESP Fit Center  409 is at  -4.323377 -0.362814  2.494339
      ESP Fit Center  410 is at  -5.188585  1.445922  1.791570
      ESP Fit Center  411 is at  -5.506146  0.468571  1.791570
      ESP Fit Center  412 is at  -5.188585 -0.508780  1.791570
      ESP Fit Center  413 is at  -4.357201 -1.112816  1.791570
      ESP Fit Center  414 is at  -4.803377  2.131339  0.831570
      ESP Fit Center  415 is at  -5.506146  1.428571  0.831570
      ESP Fit Center  416 is at  -5.763377  0.468571  0.831570
      ESP Fit Center  417 is at  -5.506146 -0.491429  0.831570
      ESP Fit Center  418 is at  -4.803377 -1.194198  0.831570
      ESP Fit Center  419 is at  -5.188585  1.445922 -0.128430
      ESP Fit Center  420 is at  -5.506146  0.468571 -0.128430
      ESP Fit Center  421 is at  -5.188585 -0.508780 -0.128430
      ESP Fit Center  422 is at   0.883041 -2.670271 -0.645100
      ESP Fit Center  423 is at   0.436865 -2.588889 -1.605100
      ESP Fit Center  424 is at   0.403041 -1.838886 -2.307869
      ESP Fit Center  425 is at  -0.076959 -1.007502 -2.565100
      ESP Fit Center  426 is at   3.339648 -1.483516  3.681493
      ESP Fit Center  427 is at   4.299648 -1.483516  3.424262
      ESP Fit Center  428 is at   2.859648 -0.652132  3.424262
      ESP Fit Center  429 is at   2.379648 -1.483516  3.424262
      ESP Fit Center  430 is at   2.859648 -2.314901  3.424262
      ESP Fit Center  431 is at   3.819648 -2.314901  3.424262
      ESP Fit Center  432 is at   1.676880 -1.483516  2.721493
      ESP Fit Center  433 is at   1.994440 -2.460867  2.721493
      ESP Fit Center  434 is at   2.825824 -3.064903  2.721493
      ESP Fit Center  435 is at   3.853472 -3.064903  2.721493
      ESP Fit Center  436 is at   4.684857 -2.460867  2.721493
      ESP Fit Center  437 is at   1.419648 -1.483516  1.761493
      ESP Fit Center  438 is at   1.676880 -2.443516  1.761493
      ESP Fit Center  439 is at   2.379648 -3.146285  1.761493
      ESP Fit Center  440 is at   3.339648 -3.403516  1.761493
      ESP Fit Center  441 is at   4.299648 -3.146285  1.761493
      ESP Fit Center  442 is at   2.825824 -3.064903  0.801493
      ESP Fit Center  443 is at   3.853472 -3.064903  0.801493
      ESP Fit Center  444 is at   6.350892 -1.010753  1.688650
      ESP Fit Center  445 is at   6.033331 -0.033402  1.688650
      ESP Fit Center  446 is at   5.201947 -2.592140  1.688650
      ESP Fit Center  447 is at   6.033331 -1.988104  1.688650
      ESP Fit Center  448 is at   6.608123 -1.010753  0.728650
      ESP Fit Center  449 is at   6.350892 -0.050753  0.728650
      ESP Fit Center  450 is at   4.688123 -2.930753  0.728650
      ESP Fit Center  451 is at   5.648123 -2.673521  0.728650
      ESP Fit Center  452 is at   6.350892 -1.970753  0.728650
      ESP Fit Center  453 is at   6.350892 -1.010753 -0.231350
      ESP Fit Center  454 is at   6.033331 -0.033402 -0.231350
      ESP Fit Center  455 is at   4.174299 -2.592140 -0.231350
      ESP Fit Center  456 is at   5.201947 -2.592140 -0.231350
      ESP Fit Center  457 is at   6.033331 -1.988104 -0.231350
      ESP Fit Center  458 is at   5.648123 -1.010753 -0.934119
      ESP Fit Center  459 is at   5.168123 -0.179368 -0.934119
      ESP Fit Center  460 is at   5.168123 -1.842137 -0.934119
      ESP Fit Center  461 is at   3.956273  0.186467  3.746782
      ESP Fit Center  462 is at   4.916273  0.186467  3.489551
      ESP Fit Center  463 is at   4.436273  1.017852  3.489551
      ESP Fit Center  464 is at   3.476273  1.017852  3.489551
      ESP Fit Center  465 is at   2.996273  0.186467  3.489551
      ESP Fit Center  466 is at   4.436273 -0.644917  3.489551
      ESP Fit Center  467 is at   5.619041  0.186467  2.786782
      ESP Fit Center  468 is at   5.301481  1.163818  2.786782
      ESP Fit Center  469 is at   4.470096  1.767854  2.786782
      ESP Fit Center  470 is at   3.442449  1.767854  2.786782
      ESP Fit Center  471 is at   5.619041  1.146467  1.826782
      ESP Fit Center  472 is at   4.916273  1.849236  1.826782
      ESP Fit Center  473 is at   3.956273  2.106467  1.826782
      ESP Fit Center  474 is at   5.301481  1.163818  0.866782
      ESP Fit Center  475 is at   4.470096  1.767854  0.866782
[...]
  453 Fit       0.008189
  454 Fit       0.009008
  455 Fit      -0.024589
  456 Fit      -0.004670
  457 Fit       0.004411
  458 Fit       0.000625
  459 Fit       0.002475
  460 Fit      -0.009904
  461 Fit       0.017678
  462 Fit       0.016533
  463 Fit       0.020719
  464 Fit       0.023382
  465 Fit       0.018950
  466 Fit       0.014653
  467 Fit       0.014979
  468 Fit       0.018802
  469 Fit       0.024738
  470 Fit       0.033372
  471 Fit       0.016197
  472 Fit       0.021804
  473 Fit       0.034433
  474 Fit       0.014441
  475 Fit       0.020000
  476 Fit      -0.006629
  477 Fit       0.002229
  478 Fit       0.003943
  479 Fit      -0.007130
  480 Fit       0.003004
  481 Fit       0.006859
  482 Fit       0.007565
  483 Fit      -0.005971
  484 Fit       0.003246
  485 Fit       0.007430
  486 Fit       0.008791
  487 Fit       0.009198
  488 Fit      -0.003874
  489 Fit       0.003902
  490 Fit       0.007362
  491 Fit       0.008664
  492 Fit       0.004575
  493 Fit       0.000282
  494 Fit       0.004656
  495 Fit      -0.000714
  496 Fit      -0.009101
  497 Fit       0.001454
  498 Fit       0.004788
  499 Fit       0.003762
  500 Fit       0.000943
  501 Fit       0.006210
  502 Fit       0.005297
  503 Fit      -0.007158
  504 Fit       0.005673
  505 Fit       0.000377
  506 Fit      -0.012399
  507 Fit      -0.000619
  508 Fit       0.000113
  509 Fit      -0.006679
  510 Fit      -0.010623
  511 Fit      -0.010074
  512 Fit      -0.005082
  513 Fit       0.001405
  514 Fit       0.005131
  515 Fit       0.004842
  516 Fit      -0.000014
  517 Fit      -0.001316
  518 Fit      -0.003061
  519 Fit      -0.003309
  520 Fit      -0.000753
  521 Fit       0.002653
  522 Fit       0.002394
  523 Fit       0.000707
  524 Fit      -0.010163
  525 Fit      -0.000069
  526 Fit      -0.010035
  527 Fit      -0.020664
  528 Fit      -0.005239
  529 Fit       0.001079
  530 Fit       0.001460
  531 Fit      -0.002412
  532 Fit      -0.007608
  533 Fit      -0.012641
  534 Fit      -0.002100
  535 Fit       0.019982
  536 Fit       0.021160
  537 Fit       0.011425
  538 Fit       0.015929
  539 Fit       0.017647
  540 Fit       0.002853
  541 Fit       0.009454
  542 Fit       0.012823
  543 Fit       0.012594
  544 Fit       0.006899
  545 Fit       0.004199
  546 Fit       0.008069
  547 Fit       0.007539
  548 Fit       0.033334
  549 Fit       0.036601
  550 Fit       0.031472
  551 Fit       0.023067
  552 Fit       0.024824
  553 Fit       0.034673
  554 Fit       0.034379
  555 Fit       0.031961
  556 Fit       0.021275
  557 Fit       0.006295
  558 Fit       0.023439
  559 Fit       0.027240
  560 Fit       0.030847
  561 Fit       0.029864
  562 Fit      -0.009490
  563 Fit      -0.011217
  564 Fit      -0.004873
  565 Fit      -0.001686
  566 Fit      -0.005066
  567 Fit       0.001030
  568 Fit      -0.004937
  569 Fit      -0.006709
  570 Fit      -0.011013
  571 Fit      -0.014440
  572 Fit      -0.018666
  573 Fit      -0.002287
  574 Fit      -0.001689
  575 Fit      -0.013333
  576 Fit       0.010967
  577 Fit       0.004803
  578 Fit      -0.007848
  579 Fit      -0.002517
  580 Fit      -0.010052
  581 Fit      -0.018136
  582 Fit      -0.012469
  583 Fit      -0.016137
  584 Fit      -0.007301
  585 Fit      -0.006648
  586 Fit      -0.012530
  587 Fit      -0.015711
  588 Fit      -0.018634
  589 Fit      -0.005575
  590 Fit      -0.013831
  591 Fit      -0.016001
  592 Fit      -0.019441
  593 Fit      -0.006904
  594 Fit      -0.007634
  595 Fit      -0.016946
  596 Fit      -0.010434
  597 Fit      -0.012027
  598 Fit      -0.013333
  599 Fit      -0.009083
  600 Fit      -0.016053
  601 Fit      -0.013749
  602 Fit      -0.012765
  603 Fit      -0.022032
  604 Fit      -0.017461
  605 Fit       0.003098
  606 Fit      -0.002786
  607 Fit       0.002489
  608 Fit      -0.015961
  609 Fit      -0.008008
  610 Fit       0.013703
  611 Fit       0.012955
  612 Fit       0.013866
  613 Fit       0.011729
  614 Fit       0.014976
  615 Fit       0.009944
  616 Fit       0.011143
  617 Fit       0.007324
  618 Fit       0.000922
  619 Fit       0.009808
  620 Fit      -0.013402
  621 Fit      -0.007440
  622 Fit      -0.003831
  623 Fit       0.006523
  624 Fit       0.006368
  625 Fit       0.006200
  626 Fit       0.003231
  627 Fit      -0.004340
  628 Fit      -0.012096
  629 Fit      -0.004273
  630 Fit       0.001703
  631 Fit       0.004506
  632 Fit       0.000886
  633 Fit       0.002004
  634 Fit       0.000479
  635 Fit       0.002425
  636 Fit       0.001481
  637 Fit       0.008668
  638 Fit       0.010740
  639 Fit       0.016829
  640 Fit       0.000022
  641 Fit       0.004204
  642 Fit      -0.003175
  643 Fit      -0.008591
  644 Fit      -0.014146
  645 Fit      -0.026058
  646 Fit      -0.028588
  647 Fit      -0.024163
  648 Fit      -0.015146
  649 Fit      -0.023692
  650 Fit      -0.032440
  651 Fit      -0.035555
  652 Fit      -0.033393
  653 Fit      -0.025738
  654 Fit      -0.027767
  655 Fit      -0.020941
  656 Fit      -0.030565
  657 Fit      -0.036208
  658 Fit      -0.037673
  659 Fit      -0.034409
  660 Fit      -0.032599
  661 Fit      -0.025373
  662 Fit      -0.028627
  663 Fit      -0.035051
  664 Fit      -0.036760
  665 Fit      -0.032545
  666 Fit      -0.018179
  667 Fit      -0.011992
  668 Fit      -0.020547
  669 Fit      -0.017251
  670 Fit      -0.021249
  671 Fit      -0.015219
  672 Fit      -0.020534
  673 Fit      -0.019466
  674 Fit      -0.021850
  675 Fit      -0.018216
  676 Fit      -0.021466
  677 Fit      -0.018743
  678 Fit      -0.016306
  679 Fit       0.002883
  680 Fit       0.005372
  681 Fit       0.003284
  682 Fit       0.007714
  683 Fit       0.008543
  684 Fit       0.008166
  685 Fit       0.006811
  686 Fit       0.005739
  687 Fit       0.009410
  688 Fit       0.008528
  689 Fit       0.007385
  690 Fit       0.005650
  691 Fit       0.004630
  692 Fit       0.005606
  693 Fit       0.004098
  694 Fit       0.001319
  695 Fit       0.008508
  696 Fit       0.017039
  697 Fit       0.013070
  698 Fit       0.010769
  699 Fit       0.015315
  700 Fit       0.012315
  701 Fit       0.009971
  702 Fit       0.012265
  703 Fit       0.008357
  704 Fit       0.003680
  705 Fit       0.007607
  706 Fit       0.000445
  707 Fit      -0.007363
  708 Fit      -0.000786
  709 Fit      -0.001172
  710 Fit      -0.007685
  711 Fit       0.004257
  712 Fit       0.002516
  713 Fit      -0.000824
  714 Fit      -0.008468
  715 Fit       0.003303
  716 Fit       0.001370
  717 Fit      -0.001887
  718 Fit      -0.009645
  719 Fit      -0.003419
  720 Fit      -0.006786
  721 Fit      -0.017510
  722 Fit      -0.019866
  723 Fit      -0.018094
  724 Fit       0.012239
  725 Fit       0.011604
  726 Fit       0.011049
  727 Fit       0.010826
  728 Fit       0.010611
  729 Fit       0.009122
  730 Fit       0.008909
  731 Fit       0.008425
  732 Fit       0.008250
  733 Fit       0.009006
  734 Fit       0.005170
  735 Fit       0.003611
  736 Fit       0.002377
  737 Fit       0.002461
  738 Fit       0.003833
  739 Fit      -0.012698
  740 Fit       0.010228
  741 Fit       0.006360
  742 Fit       0.008550
  743 Fit       0.009063
  744 Fit       0.009943
  745 Fit      -0.001415
  746 Fit       0.003753
  747 Fit       0.007206
  748 Fit       0.005853
  749 Fit       0.007001
  750 Fit      -0.019549
  751 Fit      -0.004510
  752 Fit       0.002592
  753 Fit      -0.001782
  754 Fit      -0.000218
  755 Fit      -0.012408
  756 Fit       0.015679
  757 Fit       0.014589
  758 Fit       0.018203
  759 Fit       0.020717
  760 Fit       0.016895
  761 Fit       0.013305
  762 Fit       0.016140
  763 Fit       0.020716
  764 Fit       0.027761
  765 Fit       0.014110
  766 Fit       0.018303
  767 Fit       0.027275
  768 Fit       0.015984
  769 Fit      -0.007633
  770 Fit       0.000839
  771 Fit       0.002828
  772 Fit      -0.002862
  773 Fit       0.003033
  774 Fit       0.005341
  775 Fit       0.005925
  776 Fit      -0.002357
  777 Fit       0.003298
  778 Fit       0.005919
  779 Fit       0.006805
  780 Fit       0.007276
  781 Fit      -0.001108
  782 Fit       0.003708
  783 Fit       0.005839
  784 Fit       0.006828
  785 Fit       0.003127
  786 Fit      -0.000774
  787 Fit       0.003552
  788 Fit      -0.001862
  789 Fit       0.000514
  790 Fit       0.003510
  791 Fit       0.002611
  792 Fit       0.001062
  793 Fit       0.004613
  794 Fit       0.003473
  795 Fit      -0.012061
  796 Fit       0.003025
  797 Fit      -0.002890
  798 Fit      -0.004977
  799 Fit      -0.011273
  800 Fit       0.002053
  801 Fit       0.003920
  802 Fit       0.002266
  803 Fit      -0.003469
  804 Fit      -0.003924
  805 Fit      -0.005283
  806 Fit      -0.005080
  807 Fit      -0.002229
  808 Fit       0.001008
  809 Fit       0.000284
  810 Fit      -0.001264
  811 Fit      -0.010843
  812 Fit      -0.001319
  813 Fit      -0.012533
  814 Fit      -0.006483
  815 Fit      -0.000046
  816 Fit       0.000086
  817 Fit      -0.004081
  818 Fit      -0.009031
  819 Fit      -0.013880
  820 Fit      -0.003646
  821 Fit       0.019236
  822 Fit       0.009494
  823 Fit       0.013516
  824 Fit       0.015103
  825 Fit       0.007331
  826 Fit       0.010408
  827 Fit       0.010841
  828 Fit       0.007627
  829 Fit       0.006356
  830 Fit       0.005653
  831 Fit       0.027800
  832 Fit       0.030742
  833 Fit       0.025740
  834 Fit       0.017989
  835 Fit       0.020388
  836 Fit       0.029690
  837 Fit       0.028952
  838 Fit       0.027623
  839 Fit       0.020801
  840 Fit       0.022636
  841 Fit       0.025734
  842 Fit       0.026462
  843 Fit      -0.007271
  844 Fit      -0.007971
  845 Fit      -0.003530
  846 Fit      -0.001713
  847 Fit      -0.004487
  848 Fit       0.000964
  849 Fit      -0.012728
  850 Fit       0.006173
  851 Fit      -0.000142
  852 Fit       0.001834
  853 Fit      -0.002320
  854 Fit      -0.005947
  855 Fit      -0.007061
  856 Fit      -0.010542
  857 Fit      -0.012621
  858 Fit      -0.016071
  859 Fit      -0.000354
  860 Fit      -0.000383
  861 Fit      -0.009453
  862 Fit       0.010308
  863 Fit       0.005692
  864 Fit       0.003701
  865 Fit      -0.000255
  866 Fit      -0.001278
  867 Fit      -0.007070
  868 Fit      -0.002466
  869 Fit      -0.008292
  870 Fit      -0.014699
  871 Fit      -0.009972
  872 Fit      -0.012295
  873 Fit      -0.006150
  874 Fit      -0.006231
  875 Fit      -0.010572
  876 Fit      -0.012618
  877 Fit      -0.013613
  878 Fit      -0.000432
  879 Fit      -0.007779
  880 Fit      -0.010449
  881 Fit      -0.012970
  882 Fit      -0.014803
  883 Fit      -0.017003
  884 Fit      -0.004007
  885 Fit      -0.005862
  886 Fit      -0.014176
  887 Fit      -0.009784
  888 Fit      -0.011525
  889 Fit      -0.011582
  890 Fit      -0.007561
  891 Fit      -0.013039
  892 Fit      -0.011004
  893 Fit      -0.010841
  894 Fit      -0.005137
  895 Fit      -0.018706
  896 Fit      -0.015241
  897 Fit       0.003971
  898 Fit      -0.001312
  899 Fit      -0.009314
  900 Fit       0.012360
  901 Fit       0.011793
  902 Fit       0.012325
  903 Fit       0.010778
  904 Fit       0.010845
  905 Fit       0.012899
  906 Fit       0.009256
  907 Fit       0.010014
  908 Fit       0.007205
  909 Fit       0.008562
  910 Fit       0.010682
  911 Fit       0.003224
  912 Fit       0.010303
  913 Fit       0.013113
  914 Fit      -0.007947
  915 Fit       0.006697
  916 Fit      -0.006719
  917 Fit      -0.004096
  918 Fit       0.001531
  919 Fit       0.004435
  920 Fit       0.004388
  921 Fit       0.003595
  922 Fit      -0.000453
  923 Fit      -0.006975
  924 Fit       0.004417
  925 Fit       0.003408
  926 Fit       0.000029
  927 Fit      -0.009537
  928 Fit      -0.004017
  929 Fit       0.000475
  930 Fit       0.000342
  931 Fit       0.000989
  932 Fit      -0.000540
  933 Fit       0.001055
  934 Fit       0.000163
  935 Fit       0.014647
  936 Fit       0.018296
  937 Fit       0.021918
  938 Fit       0.005153
  939 Fit       0.006715
  940 Fit       0.011362
  941 Fit      -0.000478
  942 Fit       0.002959
  943 Fit      -0.002488
  944 Fit      -0.017483
  945 Fit      -0.017817
  946 Fit      -0.022302
  947 Fit      -0.025834
  948 Fit      -0.025333
  949 Fit      -0.020674
  950 Fit      -0.016396
  951 Fit      -0.022960
  952 Fit      -0.028373
  953 Fit      -0.029981
  954 Fit      -0.028058
  955 Fit      -0.022952
  956 Fit      -0.023875
  957 Fit      -0.019099
  958 Fit      -0.022414
  959 Fit      -0.027279
  960 Fit      -0.030547
  961 Fit      -0.030918
  962 Fit      -0.028354
  963 Fit      -0.026794
  964 Fit      -0.021048
  965 Fit      -0.023447
  966 Fit      -0.028641
  967 Fit      -0.030063
  968 Fit      -0.026436
  969 Fit      -0.014596
  970 Fit      -0.016210
  971 Fit      -0.013775
  972 Fit      -0.015854
  973 Fit      -0.015751
  974 Fit      -0.010595
  975 Fit      -0.016784
  976 Fit      -0.013381
  977 Fit      -0.017100
  978 Fit      -0.013161
  979 Fit      -0.017250
  980 Fit      -0.016758
  981 Fit      -0.016551
  982 Fit      -0.013143
  983 Fit       0.001924
  984 Fit       0.003741
  985 Fit       0.001862
  986 Fit       0.005871
  987 Fit       0.006639
  988 Fit       0.006273
  989 Fit       0.005101
  990 Fit       0.003739
  991 Fit       0.008347
  992 Fit       0.007635
  993 Fit       0.006859
  994 Fit       0.005715
  995 Fit       0.004644
  996 Fit       0.008123
  997 Fit       0.006529
  998 Fit       0.005367
  999 Fit       0.003801
 1000 Fit       0.001861
 1001 Fit       0.003051
 1002 Fit       0.001545
 1003 Fit      -0.001206
 1004 Fit       0.015186
 1005 Fit       0.011176
 1006 Fit       0.009052
 1007 Fit       0.014254
 1008 Fit       0.011443
 1009 Fit       0.009626
 1010 Fit       0.009298
 1011 Fit       0.013904
 1012 Fit       0.010790
 1013 Fit       0.008346
 1014 Fit       0.006153
 1015 Fit       0.009777
 1016 Fit       0.006098
 1017 Fit       0.001594
 1018 Fit       0.005588
 1019 Fit      -0.001845
 1020 Fit      -0.002321
 1021 Fit      -0.007424
 1022 Fit       0.002572
 1023 Fit       0.001080
 1024 Fit      -0.001855
 1025 Fit      -0.007832
 1026 Fit       0.004446
 1027 Fit       0.002050
 1028 Fit      -0.000110
 1029 Fit      -0.004088
 1030 Fit      -0.012340
 1031 Fit      -0.000278
 1032 Fit      -0.002294
 1033 Fit      -0.006582
 1034 Fit      -0.005740
 1035 Fit      -0.008679
 1036 Fit      -0.017062
 1037 Fit       0.010961
 1038 Fit       0.010254
 1039 Fit       0.009584
 1040 Fit       0.009637
 1041 Fit       0.009412
 1042 Fit       0.008056
 1043 Fit       0.007969
 1044 Fit       0.007710
 1045 Fit       0.007742
 1046 Fit       0.008551
 1047 Fit       0.005095
 1048 Fit       0.005622
 1049 Fit       0.004858
 1050 Fit       0.004120
 1051 Fit       0.004191
 1052 Fit       0.005209
 1053 Fit      -0.003383
 1054 Fit      -0.003848
 1055 Fit      -0.002438
 1056 Fit       0.009420
 1057 Fit       0.007895
 1058 Fit       0.008317
 1059 Fit       0.009499
 1060 Fit       0.001777
 1061 Fit       0.004566
 1062 Fit       0.006810
 1063 Fit       0.006463
 1064 Fit       0.007535
 1065 Fit      -0.004360
 1066 Fit       0.001149
 1067 Fit       0.004535
 1068 Fit       0.002678
 1069 Fit       0.004082
 1070 Fit      -0.008224
 1071 Fit      -0.000801
 1072 Fit      -0.005047
 1073 Fit      -0.015353
 1074 Fit       0.014074
 1075 Fit       0.013224
 1076 Fit       0.015938
 1077 Fit       0.017651
 1078 Fit       0.014945
 1079 Fit       0.012289
 1080 Fit       0.014574
 1081 Fit       0.018087
 1082 Fit       0.022717
 1083 Fit       0.025042
 1084 Fit       0.019476
 1085 Fit       0.013124
 1086 Fit       0.016287
 1087 Fit       0.021950
 1088 Fit       0.014636
 1089 Fit      -0.000571
 1090 Fit      -0.004026
 1091 Fit       0.001177
 1092 Fit       0.003409
 1093 Fit       0.004187
 1094 Fit      -0.008156
 1095 Fit      -0.000877
 1096 Fit       0.002828
 1097 Fit       0.004575
 1098 Fit       0.005198
 1099 Fit      -0.006892
 1100 Fit      -0.000393
 1101 Fit       0.003041
 1102 Fit       0.004698
 1103 Fit       0.005320
 1104 Fit      -0.001829
 1105 Fit       0.002136
 1106 Fit       0.004056
 1107 Fit      -0.001321
 1108 Fit       0.002594
 1109 Fit      -0.002052
 1110 Fit       0.002374
 1111 Fit       0.003675
 1112 Fit       0.002164
 1113 Fit       0.003484
 1114 Fit       0.003216
 1115 Fit       0.004350
 1116 Fit       0.001992
 1117 Fit      -0.001581
 1118 Fit      -0.000129
 1119 Fit      -0.009149
 1120 Fit      -0.008971
 1121 Fit      -0.011823
 1122 Fit      -0.010549
 1123 Fit      -0.007622
 1124 Fit      -0.003041
 1125 Fit       0.000647
 1126 Fit       0.001903
 1127 Fit       0.000205
 1128 Fit      -0.004952
 1129 Fit      -0.004997
 1130 Fit      -0.005986
 1131 Fit      -0.005433
 1132 Fit      -0.002892
 1133 Fit      -0.000400
 1134 Fit      -0.001324
 1135 Fit      -0.002570
 1136 Fit      -0.009802
 1137 Fit      -0.001907
 1138 Fit      -0.011642
 1139 Fit      -0.021346
 1140 Fit      -0.006565
 1141 Fit      -0.001223
 1142 Fit      -0.001184
 1143 Fit      -0.004732
 1144 Fit      -0.008849
 1145 Fit      -0.012181
 1146 Fit      -0.004528
 1147 Fit       0.019824
 1148 Fit       0.013841
 1149 Fit       0.014914
 1150 Fit       0.006642
 1151 Fit       0.010025
 1152 Fit       0.011478
 1153 Fit       0.011852
 1154 Fit       0.005459
 1155 Fit       0.007846
 1156 Fit       0.007980
 1157 Fit       0.004984
 1158 Fit       0.004611
 1159 Fit       0.003917
 1160 Fit       0.023591
 1161 Fit       0.026165
 1162 Fit       0.021744
 1163 Fit       0.015915
 1164 Fit       0.025476
 1165 Fit       0.023559
 1166 Fit       0.017552
 1167 Fit       0.022190
 1168 Fit       0.023263
 1169 Fit       0.023036
 -----------------------------------------------------------------
 Leave Link  602 at Sat Feb 17 21:06:41 2018, MaxMem=   33554432 cpu:       0.6

 Test job not archived.
 1\1\GINC-NODE003\SP\RHF\6-31G(d)\C10H13N1O2\WULSDORT\17-Feb-2018\0\\#H
 F/6-31G* Geom=AllCheck Guess=Read Pop=(MK,ReadRadii) Integral=(Grid=Ul
 traFine) iop(6/33=2)\\Optimization for frag54-conf1\\0,1\C,0,3.1289571
 278,-0.6957214202,-0.0201619198\C,0,2.2316650172,0.3681443652,0.134843
 0229\C,0,3.1972307353,-1.7052619044,0.9300669277\C,0,1.4649642518,-0.5
 988429396,2.2204028627\C,0,1.3988976721,0.4174905623,1.2527980392\C,0,
 2.3614355182,-1.6579318253,2.0585391303\C,0,-1.786855247,0.7548142641,
 2.2758927899\C,0,-3.1803283286,0.2835549996,1.8850687176\C,0,1.6945784
 155,-2.6893992175,4.107471673\C,0,0.4052674282,1.5504783043,1.43618223
 68\N,0,-0.9883509909,1.1515085606,1.2391059575\O,0,-1.4211444478,0.784
 134781,3.4470963504\O,0,2.5038297263,-2.6899810876,2.9405138968\H,0,3.
 7798448861,-0.7337299464,-0.889825448\H,0,2.1874933983,1.1575759978,-0
 .6118435136\H,0,3.8874773143,-2.5370066371,0.8291747584\H,0,0.81048749
 9,-0.5370038628,3.0824774567\H,0,-3.2836448158,-0.7743594343,2.1480124
 77\H,0,-3.9150306824,0.8390632955,2.4749264482\H,0,-3.4083226558,0.408
 4664062,0.8218480149\H,0,1.9688543705,-3.5893833331,4.6610315328\H,0,0
 .6260860816,-2.7259292246,3.8587281744\H,0,1.8854731854,-1.8061004423,
 4.7304709488\H,0,0.460740607,1.9490119905,2.4522564611\H,0,0.629174393
 5,2.3645873861,0.7383540916\H,0,-1.2923869043,0.9583431909,0.295091578
 2\\Version=AM64L-G09RevC.01\State=1-A\HF=-590.4315482\RMSD=4.512e-09\D
 ipole=-0.6266081,0.0886765,-1.0968795\Quadrupole=1.3792182,-1.7655828,
 0.3863646,1.306997,3.6339754,-6.1181885\PG=C01 [X(C10H13N1O2)]\\@


 BLESSED ARE THOSE WHO NOUGHT EXPECT,
 FOR THEY SHALL NOT BE DISAPPOINTED..  WALCOT - ODE TO PITT
 Job cpu time:  0 days  0 hours  2 minutes 43.2 seconds.
 File lengths (MBytes):  RWF=     31 Int=      0 D2E=      0 Chk=      4 Scr=      1
 Normal termination of Gaussian 09 at Sat Feb 17 21:06:41 2018.
