 Entering Gaussian System, Link 0=g09
 Initial command:
 /home/fb_chem/chemsoft/lx24-amd64/Gaussian_09_C.01_NBO_3.1_64_istanbul-64/g09/l1.exe /local/2397319.1.parallel_long/Gau-10808.inp -scrdir=/local/2397319.1.parallel_long/
 Entering Link 1 = /home/fb_chem/chemsoft/lx24-amd64/Gaussian_09_C.01_NBO_3.1_64_istanbul-64/g09/l1.exe PID=     10809.
  
 Copyright (c) 1988,1990,1992,1993,1995,1998,2003,2009,2011,
            Gaussian, Inc.  All Rights Reserved.
  
 This is part of the Gaussian(R) 09 program.  It is based on
 the Gaussian(R) 03 system (copyright 2003, Gaussian, Inc.),
 the Gaussian(R) 98 system (copyright 1998, Gaussian, Inc.),
 the Gaussian(R) 94 system (copyright 1995, Gaussian, Inc.),
 the Gaussian 92(TM) system (copyright 1992, Gaussian, Inc.),
 the Gaussian 90(TM) system (copyright 1990, Gaussian, Inc.),
 the Gaussian 88(TM) system (copyright 1988, Gaussian, Inc.),
 the Gaussian 86(TM) system (copyright 1986, Carnegie Mellon
 University), and the Gaussian 82(TM) system (copyright 1983,
 Carnegie Mellon University). Gaussian is a federally registered
 trademark of Gaussian, Inc.
  
 This software contains proprietary and confidential information,
 including trade secrets, belonging to Gaussian, Inc.
  
 This software is provided under written license and may be
 used, copied, transmitted, or stored only in accord with that
 written license.
  
 The following legend is applicable only to US Government
 contracts under FAR:
  
                    RESTRICTED RIGHTS LEGEND
  
 Use, reproduction and disclosure by the US Government is
 subject to restrictions as set forth in subparagraphs (a)
 and (c) of the Commercial Computer Software - Restricted
 Rights clause in FAR 52.227-19.
  
 Gaussian, Inc.
 340 Quinnipiac St., Bldg. 40, Wallingford CT 06492
  
  
 ---------------------------------------------------------------
 Warning -- This program may not be used in any manner that
 competes with the business of Gaussian, Inc. or will provide
 assistance to any competitor of Gaussian, Inc.  The licensee
 of this program is prohibited from giving any competitor of
 Gaussian, Inc. access to this program.  By using this program,
 the user acknowledges that Gaussian, Inc. is engaged in the
 business of creating and licensing software in the field of
 computational chemistry and represents and warrants to the
 licensee that it is not a competitor of Gaussian, Inc. and that
 it will not use this program in any manner prohibited above.
 ---------------------------------------------------------------
  

 Cite this work as:
 Gaussian 09, Revision C.01,
 M. J. Frisch, G. W. Trucks, H. B. Schlegel, G. E. Scuseria, 
 M. A. Robb, J. R. Cheeseman, G. Scalmani, V. Barone, B. Mennucci, 
 G. A. Petersson, H. Nakatsuji, M. Caricato, X. Li, H. P. Hratchian, 
 A. F. Izmaylov, J. Bloino, G. Zheng, J. L. Sonnenberg, M. Hada, 
 M. Ehara, K. Toyota, R. Fukuda, J. Hasegawa, M. Ishida, T. Nakajima, 
 Y. Honda, O. Kitao, H. Nakai, T. Vreven, J. A. Montgomery, Jr., 
 J. E. Peralta, F. Ogliaro, M. Bearpark, J. J. Heyd, E. Brothers, 
 K. N. Kudin, V. N. Staroverov, T. Keith, R. Kobayashi, J. Normand, 
 K. Raghavachari, A. Rendell, J. C. Burant, S. S. Iyengar, J. Tomasi, 
 M. Cossi, N. Rega, J. M. Millam, M. Klene, J. E. Knox, J. B. Cross, 
 V. Bakken, C. Adamo, J. Jaramillo, R. Gomperts, R. E. Stratmann, 
 O. Yazyev, A. J. Austin, R. Cammi, C. Pomelli, J. W. Ochterski, 
 R. L. Martin, K. Morokuma, V. G. Zakrzewski, G. A. Voth, 
 P. Salvador, J. J. Dannenberg, S. Dapprich, A. D. Daniels, 
 O. Farkas, J. B. Foresman, J. V. Ortiz, J. Cioslowski, 
 and D. J. Fox, Gaussian, Inc., Wallingford CT, 2010.
 
 ******************************************
 Gaussian 09:  AM64L-G09RevC.01 23-Sep-2011
                16-Feb-2018 
 ******************************************
 %nprocs=4
 Will use up to    4 processors via shared memory.
 %chk=frag8-conf1.chk
 ---------------------------------------------------------
 #B3LYP/6-31G* Integral=(Grid=UltraFine) freq Opt pop=none
 ---------------------------------------------------------
 1/14=-1,18=20,19=15,26=3,38=1/1,3;
 2/9=110,12=2,17=6,18=5,40=1/2;
 3/5=1,6=6,7=1,11=2,16=1,25=1,30=1,71=1,74=-5,75=-5/1,2,3;
 4//1;
 5/5=2,38=5/2;
 7//1,2,3,16;
 1/14=-1,18=20,19=15/3(2);
 2/9=110/2;
 99//99;
 2/9=110/2;
 3/5=1,6=6,7=1,11=2,16=1,25=1,30=1,71=1,74=-5,75=-5/1,2,3;
 4/5=5,16=3/1;
 5/5=2,38=5/2;
 7//1,2,3,16;
 1/14=-1,18=20,19=15/3(-5);
 2/9=110/2;
 99/9=1/99;
 ----------------------------
 Optimization for frag8-conf1
 ----------------------------
 Charge =  0 Multiplicity = 1
 Symbolic Z-Matrix:
 C                     1.22431  -1.67467  -0.17819 
 C                     0.83791  -0.53948   0.53419 
 C                     2.14419  -2.56731   0.37168 
 C                     2.29075  -1.18823   2.3505 
 C                     1.37893  -0.27901   1.79783 
 C                     2.67783  -2.3391    1.64658 
 C                     5.83957  -2.20526   2.80682 
 C                     0.94508   0.92873   2.57683 
 C                     7.18257  -1.83237   2.24036 
 C                     3.68482  -3.2929    2.2388 
 N                     5.03146  -2.87202   1.92193 
 O                     5.50172  -1.90878   3.95099 
 H                     0.80659  -1.86451  -1.16565 
 H                     0.11346   0.14447   0.09295 
 H                     2.43985  -3.44637  -0.20013 
 H                     2.71033  -0.99941   3.33979 
 H                     0.08026   0.68077   3.19977 
 H                     1.75454   1.28908   3.22035 
 H                     0.67416   1.75024   1.90533 
 H                     7.09352  -0.88914   1.69494 
 H                     7.90218  -1.71547   3.05533 
 H                     7.54869  -2.6093    1.56321 
 H                     3.54971  -3.36542   3.32384 
 H                     3.54808  -4.29881   1.82671 
 H                     5.36789  -3.04452   0.97928 
 

 GradGradGradGradGradGradGradGradGradGradGradGradGradGradGradGradGradGrad
 Berny optimization.
 Initialization pass.
                           ----------------------------
                           !    Initial Parameters    !
                           ! (Angstroms and Degrees)  !
 --------------------------                            --------------------------
 ! Name  Definition              Value          Derivative Info.                !
 --------------------------------------------------------------------------------
 ! R1    R(1,2)                  1.3948         estimate D2E/DX2                !
 ! R2    R(1,3)                  1.3948         estimate D2E/DX2                !
 ! R3    R(1,13)                 1.0889         estimate D2E/DX2                !
 ! R4    R(2,5)                  1.399          estimate D2E/DX2                !
 ! R5    R(2,14)                 1.0896         estimate D2E/DX2                !
 ! R6    R(3,6)                  1.4008         estimate D2E/DX2                !
 ! R7    R(3,15)                 1.0896         estimate D2E/DX2                !
 ! R8    R(4,5)                  1.4013         estimate D2E/DX2                !
 ! R9    R(4,6)                  1.4035         estimate D2E/DX2                !
 ! R10   R(4,16)                 1.0911         estimate D2E/DX2                !
 ! R11   R(5,8)                  1.5012         estimate D2E/DX2                !
 ! R12   R(6,10)                 1.5081         estimate D2E/DX2                !
 ! R13   R(7,9)                  1.5045         estimate D2E/DX2                !
 ! R14   R(7,11)                 1.3714         estimate D2E/DX2                !
 ! R15   R(7,12)                 1.2293         estimate D2E/DX2                !
 ! R16   R(8,17)                 1.0943         estimate D2E/DX2                !
 ! R17   R(8,18)                 1.0951         estimate D2E/DX2                !
 ! R18   R(8,19)                 1.0951         estimate D2E/DX2                !
 ! R19   R(9,20)                 1.0932         estimate D2E/DX2                !
 ! R20   R(9,21)                 1.0935         estimate D2E/DX2                !
 ! R21   R(9,22)                 1.0937         estimate D2E/DX2                !
 ! R22   R(10,11)                1.446          estimate D2E/DX2                !
 ! R23   R(10,23)                1.0958         estimate D2E/DX2                !
 ! R24   R(10,24)                1.0956         estimate D2E/DX2                !
 ! R25   R(11,25)                1.0156         estimate D2E/DX2                !
 ! A1    A(2,1,3)              120.1476         estimate D2E/DX2                !
 ! A2    A(2,1,13)             119.9208         estimate D2E/DX2                !
 ! A3    A(3,1,13)             119.9316         estimate D2E/DX2                !
 ! A4    A(1,2,5)              120.3784         estimate D2E/DX2                !
 ! A5    A(1,2,14)             119.2237         estimate D2E/DX2                !
 ! A6    A(5,2,14)             120.3972         estimate D2E/DX2                !
 ! A7    A(1,3,6)              120.3844         estimate D2E/DX2                !
 ! A8    A(1,3,15)             119.2369         estimate D2E/DX2                !
 ! A9    A(6,3,15)             120.3782         estimate D2E/DX2                !
 ! A10   A(5,4,6)              120.9111         estimate D2E/DX2                !
 ! A11   A(5,4,16)             119.7072         estimate D2E/DX2                !
 ! A12   A(6,4,16)             119.3813         estimate D2E/DX2                !
 ! A13   A(2,5,4)              119.148          estimate D2E/DX2                !
 ! A14   A(2,5,8)              120.4447         estimate D2E/DX2                !
 ! A15   A(4,5,8)              120.3577         estimate D2E/DX2                !
 ! A16   A(3,6,4)              119.0119         estimate D2E/DX2                !
 ! A17   A(3,6,10)             120.5792         estimate D2E/DX2                !
 ! A18   A(4,6,10)             120.3838         estimate D2E/DX2                !
 ! A19   A(9,7,11)             113.8019         estimate D2E/DX2                !
 ! A20   A(9,7,12)             122.4108         estimate D2E/DX2                !
 ! A21   A(11,7,12)            123.7717         estimate D2E/DX2                !
 ! A22   A(5,8,17)             109.9676         estimate D2E/DX2                !
 ! A23   A(5,8,18)             110.8574         estimate D2E/DX2                !
 ! A24   A(5,8,19)             110.9055         estimate D2E/DX2                !
 ! A25   A(17,8,18)            108.9177         estimate D2E/DX2                !
 ! A26   A(17,8,19)            108.8776         estimate D2E/DX2                !
 ! A27   A(18,8,19)            107.2397         estimate D2E/DX2                !
 ! A28   A(7,9,20)             109.2067         estimate D2E/DX2                !
 ! A29   A(7,9,21)             109.4712         estimate D2E/DX2                !
 ! A30   A(7,9,22)             110.8462         estimate D2E/DX2                !
 ! A31   A(20,9,21)            109.464          estimate D2E/DX2                !
 ! A32   A(20,9,22)            109.3464         estimate D2E/DX2                !
 ! A33   A(21,9,22)            108.4869         estimate D2E/DX2                !
 ! A34   A(6,10,11)            110.5908         estimate D2E/DX2                !
 ! A35   A(6,10,23)            110.3865         estimate D2E/DX2                !
 ! A36   A(6,10,24)            110.4643         estimate D2E/DX2                !
 ! A37   A(11,10,23)           110.5525         estimate D2E/DX2                !
 ! A38   A(11,10,24)           107.5194         estimate D2E/DX2                !
 ! A39   A(23,10,24)           107.2336         estimate D2E/DX2                !
 ! A40   A(7,11,10)            123.2909         estimate D2E/DX2                !
 ! A41   A(7,11,25)            119.0951         estimate D2E/DX2                !
 ! A42   A(10,11,25)           117.5447         estimate D2E/DX2                !
 ! D1    D(3,1,2,5)              0.679          estimate D2E/DX2                !
 ! D2    D(3,1,2,14)          -179.6135         estimate D2E/DX2                !
 ! D3    D(13,1,2,5)          -179.3403         estimate D2E/DX2                !
 ! D4    D(13,1,2,14)            0.3672         estimate D2E/DX2                !
 ! D5    D(2,1,3,6)              0.5952         estimate D2E/DX2                !
 ! D6    D(2,1,3,15)          -179.6556         estimate D2E/DX2                !
 ! D7    D(13,1,3,6)          -179.3855         estimate D2E/DX2                !
 ! D8    D(13,1,3,15)            0.3637         estimate D2E/DX2                !
 ! D9    D(1,2,5,4)             -1.4082         estimate D2E/DX2                !
 ! D10   D(1,2,5,8)           -178.8564         estimate D2E/DX2                !
 ! D11   D(14,2,5,4)           178.8878         estimate D2E/DX2                !
 ! D12   D(14,2,5,8)             1.4396         estimate D2E/DX2                !
 ! D13   D(1,3,6,4)             -1.1036         estimate D2E/DX2                !
 ! D14   D(1,3,6,10)          -179.2875         estimate D2E/DX2                !
 ! D15   D(15,3,6,4)           179.1501         estimate D2E/DX2                !
 ! D16   D(15,3,6,10)            0.9662         estimate D2E/DX2                !
 ! D17   D(6,4,5,2)              0.8885         estimate D2E/DX2                !
 ! D18   D(6,4,5,8)            178.3389         estimate D2E/DX2                !
 ! D19   D(16,4,5,2)          -179.3636         estimate D2E/DX2                !
 ! D20   D(16,4,5,8)            -1.9132         estimate D2E/DX2                !
 ! D21   D(5,4,6,3)              0.3581         estimate D2E/DX2                !
 ! D22   D(5,4,6,10)           178.5456         estimate D2E/DX2                !
 ! D23   D(16,4,6,3)          -179.3906         estimate D2E/DX2                !
 ! D24   D(16,4,6,10)           -1.2031         estimate D2E/DX2                !
 ! D25   D(2,5,8,17)            89.5287         estimate D2E/DX2                !
 ! D26   D(2,5,8,18)          -149.9692         estimate D2E/DX2                !
 ! D27   D(2,5,8,19)           -30.9542         estimate D2E/DX2                !
 ! D28   D(4,5,8,17)           -87.8884         estimate D2E/DX2                !
 ! D29   D(4,5,8,18)            32.6136         estimate D2E/DX2                !
 ! D30   D(4,5,8,19)           151.6286         estimate D2E/DX2                !
 ! D31   D(3,6,10,11)           91.6944         estimate D2E/DX2                !
 ! D32   D(3,6,10,23)         -145.6423         estimate D2E/DX2                !
 ! D33   D(3,6,10,24)          -27.2153         estimate D2E/DX2                !
 ! D34   D(4,6,10,11)          -86.4645         estimate D2E/DX2                !
 ! D35   D(4,6,10,23)           36.1988         estimate D2E/DX2                !
 ! D36   D(4,6,10,24)          154.6258         estimate D2E/DX2                !
 ! D37   D(11,7,9,20)           84.4744         estimate D2E/DX2                !
 ! D38   D(11,7,9,21)         -155.6958         estimate D2E/DX2                !
 ! D39   D(11,7,9,22)          -36.0584         estimate D2E/DX2                !
 ! D40   D(12,7,9,20)          -94.1405         estimate D2E/DX2                !
 ! D41   D(12,7,9,21)           25.6893         estimate D2E/DX2                !
 ! D42   D(12,7,9,22)          145.3267         estimate D2E/DX2                !
 ! D43   D(9,7,11,10)         -178.1951         estimate D2E/DX2                !
 ! D44   D(9,7,11,25)           -1.3004         estimate D2E/DX2                !
 ! D45   D(12,7,11,10)           0.3982         estimate D2E/DX2                !
 ! D46   D(12,7,11,25)         177.2929         estimate D2E/DX2                !
 ! D47   D(6,10,11,7)          100.777          estimate D2E/DX2                !
 ! D48   D(6,10,11,25)         -76.1627         estimate D2E/DX2                !
 ! D49   D(23,10,11,7)         -21.7895         estimate D2E/DX2                !
 ! D50   D(23,10,11,25)        161.2708         estimate D2E/DX2                !
 ! D51   D(24,10,11,7)        -138.5429         estimate D2E/DX2                !
 ! D52   D(24,10,11,25)         44.5174         estimate D2E/DX2                !
 --------------------------------------------------------------------------------
 Trust Radius=3.00D-01 FncErr=1.00D-07 GrdErr=1.00D-06
 Number of steps in this run=    129 maximum allowed number of steps=    150.
 GradGradGradGradGradGradGradGradGradGradGradGradGradGradGradGradGradGrad

                          Input orientation:                          
 ---------------------------------------------------------------------
 Center     Atomic      Atomic             Coordinates (Angstroms)
 Number     Number       Type             X           Y           Z
 ---------------------------------------------------------------------
      1          6           0        1.224311   -1.674672   -0.178189
      2          6           0        0.837914   -0.539480    0.534195
      3          6           0        2.144194   -2.567305    0.371677
      4          6           0        2.290748   -1.188232    2.350503
      5          6           0        1.378929   -0.279010    1.797830
      6          6           0        2.677829   -2.339103    1.646577
      7          6           0        5.839573   -2.205257    2.806818
      8          6           0        0.945084    0.928734    2.576825
      9          6           0        7.182572   -1.832370    2.240362
     10          6           0        3.684819   -3.292896    2.238799
     11          7           0        5.031456   -2.872023    1.921926
     12          8           0        5.501721   -1.908776    3.950986
     13          1           0        0.806595   -1.864506   -1.165650
     14          1           0        0.113461    0.144473    0.092954
     15          1           0        2.439854   -3.446371   -0.200132
     16          1           0        2.710327   -0.999408    3.339791
     17          1           0        0.080263    0.680768    3.199768
     18          1           0        1.754541    1.289075    3.220349
     19          1           0        0.674164    1.750238    1.905327
     20          1           0        7.093523   -0.889143    1.694943
     21          1           0        7.902180   -1.715473    3.055330
     22          1           0        7.548693   -2.609304    1.563206
     23          1           0        3.549706   -3.365422    3.323837
     24          1           0        3.548084   -4.298807    1.826714
     25          1           0        5.367890   -3.044516    0.979284
 ---------------------------------------------------------------------
                    Distance matrix (angstroms):
                    1          2          3          4          5
     1  C    0.000000
     2  C    1.394796   0.000000
     3  C    1.394751   2.417614   0.000000
     4  C    2.787148   2.414660   2.416418   0.000000
     5  C    2.424135   1.399042   2.802826   1.401265   0.000000
     6  C    2.425687   2.803806   1.400790   1.403513   2.440082
     7  C    5.521995   5.740752   4.440362   3.719775   4.962442
     8  C    3.800763   2.517832   4.303816   2.518646   1.501234
     9  C    6.432350   6.696063   5.423778   4.935280   6.024204
    10  C    3.809801   4.311827   2.527084   2.526959   3.820351
    11  N    4.509822   4.995234   3.291263   3.245045   4.481079
    12  O    5.949885   5.941425   4.951576   3.659382   4.928451
    13  H    1.088854   2.155492   2.155568   3.876002   3.409337
    14  H    2.148673   1.089640   3.399309   3.407816   2.165030
    15  H    2.148707   3.399333   1.089558   3.409862   3.892247
    16  H    3.878197   3.404238   3.404190   1.091051   2.160841
    17  H    4.274055   3.027924   4.775761   3.016730   2.138490
    18  H    4.540375   3.376277   4.810242   2.679776   2.150241
    19  H    4.046444   2.673878   4.811886   3.383212   2.150836
    20  H    6.210743   6.371990   5.391022   4.856528   5.747993
    21  H    7.419653   7.592295   6.409525   5.680047   6.796877
    22  H    6.625994   7.097717   5.534448   5.503205   6.599341
    23  H    4.531036   4.808521   3.365665   2.696760   4.070247
    24  H    4.038025   4.811255   2.661980   3.395722   4.567804
    25  H    4.515026   5.195575   3.314986   3.846405   4.922382
                    6          7          8          9         10
     6  C    0.000000
     7  C    3.370564   0.000000
     8  C    3.813991   5.816427   0.000000
     9  C    4.571878   1.504514   6.829580   0.000000
    10  C    1.508137   2.479631   5.044063   3.790437   0.000000
    11  N    2.428864   1.371373   5.618994   2.410306   1.446020
    12  O    3.670129   1.229295   5.541004   2.399444   2.854558
    13  H    3.411067   6.420863   4.671990   7.228764   4.681319
    14  H    3.893312   6.758302   2.734279   7.647980   5.401366
    15  H    2.166335   4.705337   5.393271   5.572646   2.742604
    16  H    2.159355   3.395632   2.723221   4.680122   2.724317
    17  H    4.275439   6.453930   1.094285   7.594677   5.450348
    18  H    4.061145   5.391554   1.095075   6.337769   5.067926
    19  H    4.561177   6.568110   1.095069   7.436847   5.882894
    20  H    4.647911   2.130918   6.471916   1.093202   4.206313
    21  H    5.446774   2.134477   7.458015   1.093469   4.576147
    22  H    4.879064   2.151956   7.559946   1.093714   3.981613
    23  H    2.150977   2.618546   5.077585   4.089239   1.095820
    24  H    2.151798   3.254916   5.887739   4.411793   1.095614
    25  H    2.859950   2.065604   6.156303   2.520454   2.116790
                   11         12         13         14         15
    11  N    0.000000
    12  O    2.294793   0.000000
    13  H    5.328947   6.944504   0.000000
    14  H    6.052361   6.937838   2.469922   0.000000
    15  H    3.398442   5.382472   2.470234   4.288608   0.000000
    16  H    3.302222   2.998731   4.967050   4.312091   4.311825
    17  H    6.226518   6.054938   5.105179   3.152937   5.844678
    18  H    5.453331   4.980105   5.484584   3.712662   5.881649
    19  H    6.352288   6.393622   4.744977   2.485471   5.878380
    20  H    2.869748   2.943334   6.975657   7.235744   5.638028
    21  H    3.295947   2.569391   8.257494   8.538104   6.590224
    22  H    2.556204   3.222162   7.311447   8.063969   5.469029
    23  H    2.098661   2.515054   5.471097   5.879265   3.695494
    24  H    2.060381   3.747196   4.732423   5.877525   2.462301
    25  H    1.015636   3.184153   5.176734   6.210013   3.182123
                   16         17         18         19         20
    16  H    0.000000
    17  H    3.124074   0.000000
    18  H    2.482931   1.781479   0.000000
    19  H    3.710013   1.781028   1.763283   0.000000
    20  H    4.682958   7.342679   5.964581   6.943973   0.000000
    21  H    5.248715   8.182006   6.844561   8.098017   1.785329
    22  H    5.399797   8.323482   7.177442   8.147502   1.784233
    23  H    2.510545   5.331425   4.989757   6.037457   4.619945
    24  H    3.725222   6.221514   6.031869   6.697502   4.920702
    25  H    4.100866   6.838662   6.071135   6.773351   2.852299
                   21         22         23         24         25
    21  H    0.000000
    22  H    1.774914   0.000000
    23  H    4.662452   4.434346   0.000000
    24  H    5.209728   4.350716   1.764252   0.000000
    25  H    3.535385   2.299190   2.984242   2.367082   0.000000
 Stoichiometry    C10H13NO
 Framework group  C1[X(C10H13NO)]
 Deg. of freedom    69
 Full point group                 C1      NOp   1
 Largest Abelian subgroup         C1      NOp   1
 Largest concise Abelian subgroup C1      NOp   1
                         Standard orientation:                         
 ---------------------------------------------------------------------
 Center     Atomic      Atomic             Coordinates (Angstroms)
 Number     Number       Type             X           Y           Z
 ---------------------------------------------------------------------
      1          6           0        2.446045   -1.554915    0.510078
      2          6           0        2.969025   -0.262454    0.548700
      3          6           0        1.175728   -1.781018   -0.019547
      4          6           0        0.951147    0.581590   -0.474208
      5          6           0        2.220234    0.818347    0.070684
      6          6           0        0.420222   -0.716524   -0.527754
      7          6           0       -2.719837    0.347760    0.078896
      8          6           0        2.791592    2.206495    0.087954
      9          6           0       -3.665807    0.309381    1.248182
     10          6           0       -0.960251   -0.953587   -1.086833
     11          7           0       -1.961549   -0.786786   -0.057001
     12          8           0       -2.627128    1.324438   -0.661828
     13          1           0        3.030999   -2.389207    0.893990
     14          1           0        3.965558   -0.103870    0.959906
     15          1           0        0.779421   -2.795792   -0.037214
     16          1           0        0.363685    1.416493   -0.859197
     17          1           0        3.328457    2.401264   -0.845480
     18          1           0        1.998841    2.953002    0.203983
     19          1           0        3.482934    2.334079    0.927563
     20          1           0       -3.134480    0.621856    2.151033
     21          1           0       -4.501576    0.989822    1.063352
     22          1           0       -4.064773   -0.698602    1.393121
     23          1           0       -1.154150   -0.275323   -1.925393
     24          1           0       -1.048053   -1.976387   -1.469639
     25          1           0       -2.067585   -1.535785    0.620696
 ---------------------------------------------------------------------
 Rotational constants (GHZ):      1.6330287      0.5245051      0.4468095
 Standard basis: 6-31G(d) (6D, 7F)
 There are   206 symmetry adapted basis functions of A   symmetry.
 Integral buffers will be    131072 words long.
 Raffenetti 2 integral format.
 Two-electron integral symmetry is turned on.
   206 basis functions,   388 primitive gaussians,   206 cartesian basis functions
    44 alpha electrons       44 beta electrons
       nuclear repulsion energy       662.9179123475 Hartrees.
 NAtoms=   25 NActive=   25 NUniq=   25 SFac= 1.00D+00 NAtFMM=   60 NAOKFM=F Big=F
 One-electron integrals computed using PRISM.
 NBasis=   206 RedAO= T  NBF=   206
 NBsUse=   206 1.00D-06 NBFU=   206
 Harris functional with IExCor=  402 diagonalized for initial guess.
 ExpMin= 1.61D-01 ExpMax= 5.48D+03 ExpMxC= 8.25D+02 IAcc=3 IRadAn=         5 AccDes= 0.00D+00
 HarFok:  IExCor=  402 AccDes= 0.00D+00 IRadAn=         5 IDoV= 1
 ScaDFX=  1.000000  1.000000  1.000000  1.000000
 FoFCou: FMM=F IPFlag=           0 FMFlag=      100000 FMFlg1=           0
         NFxFlg=           0 DoJE=T BraDBF=F KetDBF=T FulRan=T
         Omega=  0.000000  0.000000  1.000000  0.000000  0.000000 ICntrl=     500 IOpCl=  0
         NMat0=    1 NMatS0=    1 NMatT0=    0 NMatD0=    1 NMtDS0=    0 NMtDT0=    0
         I1Cent=           4 NGrid=           0.
 Petite list used in FoFCou.
 Initial guess orbital symmetries:
       Occupied  (A) (A) (A) (A) (A) (A) (A) (A) (A) (A) (A) (A)
                 (A) (A) (A) (A) (A) (A) (A) (A) (A) (A) (A) (A)
                 (A) (A) (A) (A) (A) (A) (A) (A) (A) (A) (A) (A)
                 (A) (A) (A) (A) (A) (A) (A) (A)
       Virtual   (A) (A) (A) (A) (A) (A) (A) (A) (A) (A) (A) (A)
                 (A) (A) (A) (A) (A) (A) (A) (A) (A) (A) (A) (A)
                 (A) (A) (A) (A) (A) (A) (A) (A) (A) (A) (A) (A)
                 (A) (A) (A) (A) (A) (A) (A) (A) (A) (A) (A) (A)
                 (A) (A) (A) (A) (A) (A) (A) (A) (A) (A) (A) (A)
                 (A) (A) (A) (A) (A) (A) (A) (A) (A) (A) (A) (A)
                 (A) (A) (A) (A) (A) (A) (A) (A) (A) (A) (A) (A)
                 (A) (A) (A) (A) (A) (A) (A) (A) (A) (A) (A) (A)
                 (A) (A) (A) (A) (A) (A) (A) (A) (A) (A) (A) (A)
                 (A) (A) (A) (A) (A) (A) (A) (A) (A) (A) (A) (A)
                 (A) (A) (A) (A) (A) (A) (A) (A) (A) (A) (A) (A)
                 (A) (A) (A) (A) (A) (A) (A) (A) (A) (A) (A) (A)
                 (A) (A) (A) (A) (A) (A) (A) (A) (A) (A) (A) (A)
                 (A) (A) (A) (A) (A) (A)
 The electronic state of the initial guess is 1-A.
 Requested convergence on RMS density matrix=1.00D-08 within 128 cycles.
 Requested convergence on MAX density matrix=1.00D-06.
 Requested convergence on             energy=1.00D-06.
 No special actions if energy rises.
 Integral accuracy reduced to 1.0D-05 until final iterations.
 Initial convergence to 1.0D-05 achieved.  Increase integral accuracy.
 SCF Done:  E(RB3LYP) =  -518.890958331     A.U. after   15 cycles
             Convg  =    0.2869D-08             -V/T =  2.0096
 Calling FoFJK, ICntrl=      2127 FMM=F ISym2X=0 I1Cent= 0 IOpClX= 0 NMat=1 NMatS=1 NMatT=0.
 ***** Axes restored to original set *****
 -------------------------------------------------------------------
 Center     Atomic                   Forces (Hartrees/Bohr)
 Number     Number              X              Y              Z
 -------------------------------------------------------------------
      1        6          -0.000384339    0.000357543   -0.001014657
      2        6           0.001066894   -0.002365102   -0.003865966
      3        6          -0.000858311   -0.000030283   -0.000158760
      4        6          -0.000250837   -0.001971076   -0.003612911
      5        6           0.000817603   -0.003019371    0.000793620
      6        6          -0.008634229    0.002588116   -0.000669937
      7        6          -0.006390813    0.000710966    0.005596529
      8        6           0.003395544    0.003579837   -0.001100562
      9        6           0.007652299   -0.002285797    0.000066484
     10        6          -0.007805048   -0.002960439   -0.002860324
     11        7           0.012354156   -0.002084592    0.006676158
     12        8          -0.002520936   -0.003430130   -0.005830455
     13        1           0.000414517    0.000137384    0.001022956
     14        1           0.001221691    0.000313183    0.001772798
     15        1           0.000060773   -0.000373513    0.001762381
     16        1          -0.000071644   -0.000680317   -0.002333561
     17        1          -0.001592697    0.003140267    0.002499606
     18        1          -0.001768267   -0.000311016    0.002416053
     19        1          -0.002658896    0.000208146    0.001049244
     20        1           0.002367759    0.001673622   -0.001254568
     21        1          -0.001685210    0.001884279   -0.000826458
     22        1           0.002033094    0.001462797   -0.003001902
     23        1           0.006836994    0.002531170   -0.001782247
     24        1          -0.002037429   -0.000852836   -0.000155294
     25        1          -0.001562668    0.001777162    0.004811777
 -------------------------------------------------------------------
 Cartesian Forces:  Max     0.012354156 RMS     0.003265516

 GradGradGradGradGradGradGradGradGradGradGradGradGradGradGradGradGradGrad
 Berny optimization.
 Internal  Forces:  Max     0.011822160 RMS     0.003018686
 Search for a local minimum.
 Step number   1 out of a maximum of  129
 All quantities printed in internal units (Hartrees-Bohrs-Radians)
 Mixed Optimization -- RFO/linear search
 Second derivative matrix not updated -- first step.
 ITU=  0
     Eigenvalues ---    0.00658   0.00706   0.00750   0.01083   0.01264
     Eigenvalues ---    0.01488   0.01489   0.01558   0.02056   0.02064
     Eigenvalues ---    0.02070   0.02095   0.02116   0.02129   0.02143
     Eigenvalues ---    0.02158   0.05277   0.06638   0.07299   0.07321
     Eigenvalues ---    0.07353   0.07506   0.09776   0.13135   0.15985
     Eigenvalues ---    0.16000   0.16000   0.16000   0.16000   0.16000
     Eigenvalues ---    0.16000   0.16000   0.16000   0.16000   0.16000
     Eigenvalues ---    0.21954   0.21998   0.22003   0.23458   0.23481
     Eigenvalues ---    0.24974   0.24987   0.24993   0.25000   0.31538
     Eigenvalues ---    0.31908   0.32248   0.34149   0.34172   0.34233
     Eigenvalues ---    0.34233   0.34322   0.34387   0.34415   0.34445
     Eigenvalues ---    0.34691   0.34854   0.34864   0.34945   0.38771
     Eigenvalues ---    0.41608   0.41823   0.45042   0.45286   0.45645
     Eigenvalues ---    0.45959   0.46370   0.50714   0.91381
 RFO step:  Lambda=-5.34088116D-03 EMin= 6.58316481D-03
 Linear search not attempted -- first point.
 Iteration  1 RMS(Cart)=  0.08865948 RMS(Int)=  0.00185468
 Iteration  2 RMS(Cart)=  0.00304044 RMS(Int)=  0.00025581
 Iteration  3 RMS(Cart)=  0.00000475 RMS(Int)=  0.00025580
 Iteration  4 RMS(Cart)=  0.00000000 RMS(Int)=  0.00025580
 Variable       Old X    -DE/DX   Delta X   Delta X   Delta X     New X
                                 (Linear)    (Quad)   (Total)
    R1        2.63578   0.00044   0.00000   0.00132   0.00131   2.63709
    R2        2.63570   0.00041   0.00000   0.00109   0.00107   2.63677
    R3        2.05764  -0.00111   0.00000  -0.00313  -0.00313   2.05450
    R4        2.64381   0.00172   0.00000   0.00388   0.00388   2.64769
    R5        2.05912  -0.00133   0.00000  -0.00377  -0.00377   2.05535
    R6        2.64711  -0.00151   0.00000  -0.00345  -0.00345   2.64365
    R7        2.05897  -0.00061   0.00000  -0.00172  -0.00172   2.05725
    R8        2.64801  -0.00083   0.00000  -0.00205  -0.00203   2.64597
    R9        2.65226  -0.00258   0.00000  -0.00607  -0.00606   2.64620
   R10        2.06179  -0.00226   0.00000  -0.00642  -0.00642   2.05537
   R11        2.83692   0.00861   0.00000   0.02625   0.02625   2.86317
   R12        2.84997   0.00773   0.00000   0.02411   0.02411   2.87407
   R13        2.84312   0.01182   0.00000   0.03644   0.03644   2.87956
   R14        2.59152  -0.00252   0.00000  -0.00492  -0.00492   2.58660
   R15        2.32303  -0.00556   0.00000  -0.00605  -0.00605   2.31698
   R16        2.06790   0.00197   0.00000   0.00565   0.00565   2.07355
   R17        2.06939   0.00001   0.00000   0.00003   0.00003   2.06942
   R18        2.06938   0.00017   0.00000   0.00049   0.00049   2.06987
   R19        2.06585   0.00188   0.00000   0.00537   0.00537   2.07122
   R20        2.06636  -0.00152   0.00000  -0.00436  -0.00436   2.06200
   R21        2.06682   0.00150   0.00000   0.00430   0.00430   2.07112
   R22        2.73258   0.00996   0.00000   0.02533   0.02533   2.75791
   R23        2.07080  -0.00278   0.00000  -0.00800  -0.00800   2.06280
   R24        2.07041   0.00110   0.00000   0.00316   0.00316   2.07357
   R25        1.91927  -0.00529   0.00000  -0.01160  -0.01160   1.90768
    A1        2.09697  -0.00026   0.00000  -0.00013  -0.00021   2.09676
    A2        2.09301   0.00017   0.00000   0.00031   0.00035   2.09336
    A3        2.09320   0.00009   0.00000  -0.00018  -0.00014   2.09306
    A4        2.10100   0.00111   0.00000   0.00579   0.00572   2.10672
    A5        2.08085   0.00119   0.00000   0.00765   0.00766   2.08851
    A6        2.10133  -0.00229   0.00000  -0.01339  -0.01338   2.08795
    A7        2.10110  -0.00051   0.00000  -0.00238  -0.00246   2.09864
    A8        2.08108   0.00176   0.00000   0.01028   0.01032   2.09139
    A9        2.10100  -0.00125   0.00000  -0.00789  -0.00785   2.09315
   A10        2.11030   0.00323   0.00000   0.01276   0.01272   2.12301
   A11        2.08928  -0.00091   0.00000  -0.00213  -0.00214   2.08715
   A12        2.08360  -0.00232   0.00000  -0.01068  -0.01068   2.07291
   A13        2.07953  -0.00347   0.00000  -0.01370  -0.01379   2.06574
   A14        2.10216   0.00212   0.00000   0.00871   0.00866   2.11082
   A15        2.10064   0.00137   0.00000   0.00578   0.00573   2.10637
   A16        2.07715  -0.00008   0.00000  -0.00160  -0.00166   2.07549
   A17        2.10450   0.00166   0.00000   0.00709   0.00711   2.11162
   A18        2.10109  -0.00158   0.00000  -0.00562  -0.00560   2.09550
   A19        1.98622   0.00626   0.00000   0.02448   0.02448   2.01070
   A20        2.13647   0.00220   0.00000   0.00860   0.00859   2.14506
   A21        2.16022  -0.00847   0.00000  -0.03322  -0.03322   2.12700
   A22        1.91930   0.00413   0.00000   0.02088   0.02084   1.94013
   A23        1.93483   0.00146   0.00000   0.01077   0.01065   1.94548
   A24        1.93567   0.00133   0.00000   0.01016   0.01004   1.94570
   A25        1.90097  -0.00370   0.00000  -0.02645  -0.02649   1.87448
   A26        1.90027  -0.00356   0.00000  -0.02528  -0.02532   1.87495
   A27        1.87169   0.00004   0.00000   0.00812   0.00794   1.87963
   A28        1.90602   0.00241   0.00000   0.01066   0.01054   1.91656
   A29        1.91063  -0.00150   0.00000  -0.00933  -0.00939   1.90124
   A30        1.93463   0.00444   0.00000   0.03107   0.03092   1.96555
   A31        1.91051  -0.00211   0.00000  -0.02125  -0.02126   1.88924
   A32        1.90845  -0.00337   0.00000  -0.01975  -0.01995   1.88851
   A33        1.89345   0.00003   0.00000   0.00790   0.00780   1.90125
   A34        1.93017   0.01153   0.00000   0.05172   0.05116   1.98133
   A35        1.92661   0.00017   0.00000  -0.00070   0.00009   1.92670
   A36        1.92796  -0.00418   0.00000  -0.00170  -0.00326   1.92470
   A37        1.92951  -0.01075   0.00000  -0.08656  -0.08605   1.84345
   A38        1.87657   0.00060   0.00000   0.02903   0.02804   1.90461
   A39        1.87158   0.00221   0.00000   0.00699   0.00727   1.87885
   A40        2.15183  -0.00211   0.00000  -0.00979  -0.01006   2.14177
   A41        2.07860   0.00054   0.00000   0.00087   0.00060   2.07920
   A42        2.05154   0.00153   0.00000   0.00694   0.00666   2.05820
    D1        0.01185  -0.00030   0.00000  -0.01221  -0.01228  -0.00043
    D2       -3.13485  -0.00005   0.00000  -0.00245  -0.00246  -3.13730
    D3       -3.13008  -0.00038   0.00000  -0.01486  -0.01492   3.13818
    D4        0.00641  -0.00013   0.00000  -0.00511  -0.00510   0.00131
    D5        0.01039  -0.00033   0.00000  -0.01315  -0.01319  -0.00280
    D6       -3.13558  -0.00025   0.00000  -0.00918  -0.00917   3.13844
    D7       -3.13087  -0.00026   0.00000  -0.01050  -0.01054  -3.14141
    D8        0.00635  -0.00017   0.00000  -0.00652  -0.00652  -0.00018
    D9       -0.02458   0.00070   0.00000   0.02707   0.02698   0.00240
   D10       -3.12163   0.00023   0.00000   0.00676   0.00677  -3.11487
   D11        3.12218   0.00043   0.00000   0.01714   0.01709   3.13927
   D12        0.02513  -0.00003   0.00000  -0.00317  -0.00312   0.02201
   D13       -0.01926   0.00061   0.00000   0.02320   0.02320   0.00393
   D14       -3.12916   0.00073   0.00000   0.02808   0.02810  -3.10106
   D15        3.12676   0.00051   0.00000   0.01913   0.01913  -3.13730
   D16        0.01686   0.00063   0.00000   0.02401   0.02403   0.04089
   D17        0.01551  -0.00041   0.00000  -0.01679  -0.01672  -0.00121
   D18        3.11260   0.00008   0.00000   0.00358   0.00352   3.11612
   D19       -3.13049  -0.00072   0.00000  -0.02861  -0.02855   3.12415
   D20       -0.03339  -0.00024   0.00000  -0.00824  -0.00832  -0.04171
   D21        0.00625  -0.00025   0.00000  -0.00821  -0.00818  -0.00193
   D22        3.11621  -0.00031   0.00000  -0.01284  -0.01280   3.10341
   D23       -3.13096   0.00006   0.00000   0.00356   0.00354  -3.12742
   D24       -0.02100   0.00000   0.00000  -0.00108  -0.00108  -0.02208
   D25        1.56257   0.00019   0.00000   0.00923   0.00929   1.57187
   D26       -2.61746  -0.00078   0.00000  -0.00316  -0.00316  -2.62061
   D27       -0.54025   0.00108   0.00000   0.02056   0.02067  -0.51958
   D28       -1.53394  -0.00016   0.00000  -0.01083  -0.01089  -1.54483
   D29        0.56921  -0.00113   0.00000  -0.02322  -0.02334   0.54588
   D30        2.64642   0.00073   0.00000   0.00050   0.00049   2.64691
   D31        1.60037   0.00416   0.00000   0.08895   0.08903   1.68940
   D32       -2.54194  -0.00148   0.00000   0.01404   0.01406  -2.52788
   D33       -0.47500  -0.00125   0.00000   0.02118   0.02107  -0.45393
   D34       -1.50909   0.00425   0.00000   0.09382   0.09391  -1.41518
   D35        0.63179  -0.00139   0.00000   0.01891   0.01894   0.65073
   D36        2.69873  -0.00115   0.00000   0.02606   0.02595   2.72468
   D37        1.47436   0.00069   0.00000   0.01014   0.01018   1.48453
   D38       -2.71740  -0.00133   0.00000  -0.01498  -0.01504  -2.73245
   D39       -0.62934   0.00052   0.00000   0.00821   0.00814  -0.62120
   D40       -1.64306   0.00088   0.00000   0.01673   0.01683  -1.62623
   D41        0.44836  -0.00114   0.00000  -0.00838  -0.00839   0.43998
   D42        2.53643   0.00071   0.00000   0.01480   0.01479   2.55122
   D43       -3.11009   0.00080   0.00000   0.03850   0.03841  -3.07168
   D44       -0.02270  -0.00009   0.00000  -0.00558  -0.00558  -0.02828
   D45        0.00695   0.00079   0.00000   0.03248   0.03248   0.03943
   D46        3.09434  -0.00010   0.00000  -0.01160  -0.01151   3.08284
   D47        1.75889  -0.00097   0.00000  -0.05040  -0.05129   1.70760
   D48       -1.32929  -0.00007   0.00000  -0.00679  -0.00764  -1.33693
   D49       -0.38030  -0.00172   0.00000  -0.02561  -0.02542  -0.40572
   D50        2.81471  -0.00082   0.00000   0.01800   0.01824   2.83294
   D51       -2.41803   0.00111   0.00000  -0.00383  -0.00320  -2.42123
   D52        0.77697   0.00201   0.00000   0.03977   0.04046   0.81743
         Item               Value     Threshold  Converged?
 Maximum Force            0.011822     0.000450     NO 
 RMS     Force            0.003019     0.000300     NO 
 Maximum Displacement     0.283996     0.001800     NO 
 RMS     Displacement     0.089060     0.001200     NO 
 Predicted change in Energy=-2.835431D-03
 GradGradGradGradGradGradGradGradGradGradGradGradGradGradGradGradGradGrad

                          Input orientation:                          
 ---------------------------------------------------------------------
 Center     Atomic      Atomic             Coordinates (Angstroms)
 Number     Number       Type             X           Y           Z
 ---------------------------------------------------------------------
      1          6           0        1.124175   -1.709923   -0.167204
      2          6           0        0.799414   -0.551689    0.540194
      3          6           0        2.045568   -2.616493    0.358230
      4          6           0        2.313693   -1.202568    2.292492
      5          6           0        1.389598   -0.282723    1.782134
      6          6           0        2.651441   -2.368636    1.594586
      7          6           0        5.825501   -2.222687    2.814250
      8          6           0        1.015358    0.955771    2.570603
      9          6           0        7.200610   -1.783522    2.326225
     10          6           0        3.696616   -3.318557    2.158833
     11          7           0        5.068958   -2.897929    1.894895
     12          8           0        5.403654   -1.965743    3.936449
     13          1           0        0.656311   -1.907818   -1.128421
     14          1           0        0.077186    0.147743    0.125277
     15          1           0        2.293033   -3.519922   -0.196510
     16          1           0        2.796123   -1.005612    3.247197
     17          1           0        0.172954    0.756531    3.244898
     18          1           0        1.850781    1.307208    3.185246
     19          1           0        0.719351    1.777671    1.909843
     20          1           0        7.120100   -0.823637    1.803305
     21          1           0        7.855922   -1.649037    3.188265
     22          1           0        7.656628   -2.508663    1.642553
     23          1           0        3.610764   -3.376509    3.245494
     24          1           0        3.547183   -4.329380    1.758909
     25          1           0        5.437510   -3.042662    0.966288
 ---------------------------------------------------------------------
                    Distance matrix (angstroms):
                    1          2          3          4          5
     1  C    0.000000
     2  C    1.395489   0.000000
     3  C    1.395319   2.418559   0.000000
     4  C    2.778933   2.405667   2.410902   0.000000
     5  C    2.430487   1.401097   2.811455   1.400190   0.000000
     6  C    2.422881   2.800544   1.398962   1.400307   2.445088
     7  C    5.590570   5.764124   4.524933   3.694005   4.950349
     8  C    3.822742   2.538036   4.326315   2.534057   1.515126
     9  C    6.568537   6.758893   5.580440   4.921443   6.026300
    10  C    3.823036   4.320802   2.541855   2.531353   3.831516
    11  N    4.607052   5.056586   3.403151   3.259420   4.515496
    12  O    5.934590   5.893482   4.950139   3.582303   4.856570
    13  H    1.087197   2.154958   2.154620   3.866128   3.413206
    14  H    2.152360   1.087646   3.401440   3.394426   2.157059
    15  H    2.154805   3.403533   1.088650   3.400836   3.900087
    16  H    3.866471   3.394224   3.391814   1.087654   2.155757
    17  H    4.316325   3.069090   4.818384   3.054163   2.167937
    18  H    4.568365   3.399584   4.839979   2.703752   2.170091
    19  H    4.079377   2.703380   4.845103   3.401495   2.170429
    20  H    6.373345   6.451393   5.572563   4.846075   5.756013
    21  H    7.521922   7.616479   6.534928   5.631878   6.757023
    22  H    6.825405   7.215700   5.757179   5.538525   6.652064
    23  H    4.539509   4.816840   3.371017   2.704926   4.080013
    24  H    4.054927   4.827675   2.674085   3.403404   4.585972
    25  H    4.654660   5.281897   3.472265   3.860440   4.966735
                    6          7          8          9         10
     6  C    0.000000
     7  C    3.403460   0.000000
     8  C    3.831587   5.770566   0.000000
     9  C    4.644630   1.523797   6.769106   0.000000
    10  C    1.520892   2.482470   5.062467   3.829142   0.000000
    11  N    2.492935   1.368767   5.633761   2.443744   1.459423
    12  O    3.636113   1.226093   5.445909   2.419726   2.811406
    13  H    3.407003   6.508789   4.691678   7.401208   4.694644
    14  H    3.888165   6.774411   2.740931   7.701761   5.408406
    15  H    2.159153   4.819318   5.414905   5.784772   2.749225
    16  H    2.147065   3.293303   2.734214   4.566491   2.710191
    17  H    4.316607   6.404099   1.097276   7.528863   5.495641
    18  H    4.084493   5.328808   1.095091   6.237885   5.085109
    19  H    4.585217   6.549319   1.095328   7.406901   5.907422
    20  H    4.732811   2.157623   6.404913   1.096042   4.251032
    21  H    5.490378   2.142795   7.345737   1.091161   4.598571
    22  H    5.007375   2.192643   7.547851   1.095988   4.074822
    23  H    2.159074   2.534233   5.095121   4.033566   1.091586
    24  H    2.161913   3.277596   5.916232   4.488961   1.097284
    25  H    2.934493   2.058607   6.173874   2.558004   2.128143
                   11         12         13         14         15
    11  N    0.000000
    12  O    2.269126   0.000000
    13  H    5.439873   6.942156   0.000000
    14  H    6.109456   6.882087   2.476383   0.000000
    15  H    3.530809   5.401184   2.479153   4.297126   0.000000
    16  H    3.251978   2.862890   4.953666   4.297585   4.293480
    17  H    6.256872   5.937108   5.143764   3.179911   5.884392
    18  H    5.450215   4.888704   5.510978   3.722017   5.910418
    19  H    6.385964   6.329532   4.776803   2.500744   5.914193
    20  H    2.918606   2.966630   7.179905   7.304930   5.879608
    21  H    3.316580   2.583351   8.398521   8.550968   6.775149
    22  H    2.628924   3.260768   7.552732   8.173528   5.759596
    23  H    2.044379   2.383722   5.478775   5.885769   3.688411
    24  H    2.093644   3.711461   4.749503   5.895274   2.460036
    25  H    1.009499   3.159550   5.341867   6.294367   3.386386
                   16         17         18         19         20
    16  H    0.000000
    17  H    3.160090   0.000000
    18  H    2.499329   1.766892   0.000000
    19  H    3.721311   1.767385   1.768650   0.000000
    20  H    4.562315   7.268972   5.849443   6.909974   0.000000
    21  H    5.100886   8.050961   6.693364   8.019185   1.772239
    22  H    5.334656   8.320720   7.116786   8.159039   1.775674
    23  H    2.506950   5.375924   5.003836   6.058861   4.573019
    24  H    3.718403   6.281725   6.056677   6.731677   5.005791
    25  H    4.040921   6.880514   6.058859   6.810795   2.907883
                   21         22         23         24         25
    21  H    0.000000
    22  H    1.779859   0.000000
    23  H    4.583536   4.437520   0.000000
    24  H    5.271862   4.496231   1.766901   0.000000
    25  H    3.567645   2.380541   2.939937   2.420170   0.000000
 Stoichiometry    C10H13NO
 Framework group  C1[X(C10H13NO)]
 Deg. of freedom    69
 Full point group                 C1      NOp   1
 Largest Abelian subgroup         C1      NOp   1
 Largest concise Abelian subgroup C1      NOp   1
                         Standard orientation:                         
 ---------------------------------------------------------------------
 Center     Atomic      Atomic             Coordinates (Angstroms)
 Number     Number       Type             X           Y           Z
 ---------------------------------------------------------------------
      1          6           0        2.532240   -1.508695    0.511307
      2          6           0        2.991135   -0.191022    0.534605
      3          6           0        1.265657   -1.800505    0.003833
      4          6           0        0.923191    0.541998   -0.452067
      5          6           0        2.192159    0.853480    0.051152
      6          6           0        0.447404   -0.774680   -0.481182
      7          6           0       -2.729699    0.323129    0.052081
      8          6           0        2.698385    2.281507    0.042139
      9          6           0       -3.704587    0.427130    1.218587
     10          6           0       -0.955952   -1.066617   -0.989591
     11          7           0       -1.996756   -0.831951    0.006187
     12          8           0       -2.580125    1.217903   -0.772729
     13          1           0        3.163890   -2.309984    0.886743
     14          1           0        3.981302    0.027235    0.928188
     15          1           0        0.913856   -2.830579   -0.014660
     16          1           0        0.279843    1.339270   -0.817379
     17          1           0        3.212498    2.513592   -0.899051
     18          1           0        1.877859    2.998298    0.152475
     19          1           0        3.408553    2.460455    0.856622
     20          1           0       -3.185501    0.813562    2.103193
     21          1           0       -4.498507    1.127771    0.955099
     22          1           0       -4.154007   -0.537793    1.479611
     23          1           0       -1.199856   -0.413229   -1.829325
     24          1           0       -1.024223   -2.102965   -1.343646
     25          1           0       -2.117007   -1.519549    0.735458
 ---------------------------------------------------------------------
 Rotational constants (GHZ):      1.6151543      0.5238783      0.4427583
 Standard basis: 6-31G(d) (6D, 7F)
 There are   206 symmetry adapted basis functions of A   symmetry.
 Integral buffers will be    131072 words long.
 Raffenetti 2 integral format.
 Two-electron integral symmetry is turned on.
   206 basis functions,   388 primitive gaussians,   206 cartesian basis functions
    44 alpha electrons       44 beta electrons
       nuclear repulsion energy       661.2309240862 Hartrees.
 NAtoms=   25 NActive=   25 NUniq=   25 SFac= 1.00D+00 NAtFMM=   60 NAOKFM=F Big=F
 One-electron integrals computed using PRISM.
 NBasis=   206 RedAO= T  NBF=   206
 NBsUse=   206 1.00D-06 NBFU=   206
 Initial guess read from the read-write file.
 B after Tr=     0.000000    0.000000    0.000000
         Rot=    1.000000    0.000000    0.000000    0.000000 Ang=   0.00 deg.
 Initial guess orbital symmetries:
       Occupied  (A) (A) (A) (A) (A) (A) (A) (A) (A) (A) (A) (A)
                 (A) (A) (A) (A) (A) (A) (A) (A) (A) (A) (A) (A)
                 (A) (A) (A) (A) (A) (A) (A) (A) (A) (A) (A) (A)
                 (A) (A) (A) (A) (A) (A) (A) (A)
       Virtual   (A) (A) (A) (A) (A) (A) (A) (A) (A) (A) (A) (A)
                 (A) (A) (A) (A) (A) (A) (A) (A) (A) (A) (A) (A)
                 (A) (A) (A) (A) (A) (A) (A) (A) (A) (A) (A) (A)
                 (A) (A) (A) (A) (A) (A) (A) (A) (A) (A) (A) (A)
                 (A) (A) (A) (A) (A) (A) (A) (A) (A) (A) (A) (A)
                 (A) (A) (A) (A) (A) (A) (A) (A) (A) (A) (A) (A)
                 (A) (A) (A) (A) (A) (A) (A) (A) (A) (A) (A) (A)
                 (A) (A) (A) (A) (A) (A) (A) (A) (A) (A) (A) (A)
                 (A) (A) (A) (A) (A) (A) (A) (A) (A) (A) (A) (A)
                 (A) (A) (A) (A) (A) (A) (A) (A) (A) (A) (A) (A)
                 (A) (A) (A) (A) (A) (A) (A) (A) (A) (A) (A) (A)
                 (A) (A) (A) (A) (A) (A) (A) (A) (A) (A) (A) (A)
                 (A) (A) (A) (A) (A) (A) (A) (A) (A) (A) (A) (A)
                 (A) (A) (A) (A) (A) (A)
 Harris functional with IExCor=  402 diagonalized for initial guess.
 ExpMin= 1.61D-01 ExpMax= 5.48D+03 ExpMxC= 8.25D+02 IAcc=3 IRadAn=         5 AccDes= 0.00D+00
 HarFok:  IExCor=  402 AccDes= 0.00D+00 IRadAn=         5 IDoV= 1
 ScaDFX=  1.000000  1.000000  1.000000  1.000000
 FoFCou: FMM=F IPFlag=           0 FMFlag=      100000 FMFlg1=           0
         NFxFlg=           0 DoJE=T BraDBF=F KetDBF=T FulRan=T
         Omega=  0.000000  0.000000  1.000000  0.000000  0.000000 ICntrl=     500 IOpCl=  0
         NMat0=    1 NMatS0=    1 NMatT0=    0 NMatD0=    1 NMtDS0=    0 NMtDT0=    0
         I1Cent=           4 NGrid=           0.
 Petite list used in FoFCou.
 Requested convergence on RMS density matrix=1.00D-08 within 128 cycles.
 Requested convergence on MAX density matrix=1.00D-06.
 Requested convergence on             energy=1.00D-06.
 No special actions if energy rises.
 Integral accuracy reduced to 1.0D-05 until final iterations.
 Initial convergence to 1.0D-05 achieved.  Increase integral accuracy.
 SCF Done:  E(RB3LYP) =  -518.893458112     A.U. after   12 cycles
             Convg  =    0.4306D-08             -V/T =  2.0097
 Calling FoFJK, ICntrl=      2127 FMM=F ISym2X=0 I1Cent= 0 IOpClX= 0 NMat=1 NMatS=1 NMatT=0.
 ***** Axes restored to original set *****
 -------------------------------------------------------------------
 Center     Atomic                   Forces (Hartrees/Bohr)
 Number     Number              X              Y              Z
 -------------------------------------------------------------------
      1        6          -0.000539524    0.000462334    0.000586967
      2        6          -0.000032815   -0.000967173   -0.000907735
      3        6           0.000030037   -0.000575834   -0.000144784
      4        6           0.000537216    0.001146357    0.000157623
      5        6          -0.000225788    0.000748833    0.001435879
      6        6           0.001085643   -0.000372110   -0.000505819
      7        6          -0.004228751    0.000781883    0.000054226
      8        6           0.001345830   -0.000871047   -0.001542981
      9        6           0.000314682   -0.001870694    0.000440959
     10        6          -0.002851922    0.000679467    0.001504590
     11        7           0.002835783   -0.003072539   -0.002233026
     12        8           0.002585970    0.001277285    0.001217013
     13        1           0.000013029    0.000153119    0.000038214
     14        1           0.000065113    0.000321578   -0.000006646
     15        1           0.000043691   -0.000027806    0.000256890
     16        1           0.000221102   -0.000201015    0.000189772
     17        1          -0.000344520    0.000111403    0.000356254
     18        1          -0.000054363   -0.000576991    0.000376150
     19        1          -0.000528525   -0.000271403   -0.000202458
     20        1          -0.000290159    0.000245560    0.000000062
     21        1          -0.000473523    0.000274439    0.000582739
     22        1          -0.000612120    0.000324536   -0.000388025
     23        1          -0.000490427    0.000166693    0.000602374
     24        1           0.001225877    0.001021717   -0.000970649
     25        1           0.000368465    0.001091407   -0.000897589
 -------------------------------------------------------------------
 Cartesian Forces:  Max     0.004228751 RMS     0.001085221

 GradGradGradGradGradGradGradGradGradGradGradGradGradGradGradGradGradGrad
 Berny optimization.
 Using GEDIIS/GDIIS optimizer.
 Internal  Forces:  Max     0.004624521 RMS     0.000701215
 Search for a local minimum.
 Step number   2 out of a maximum of  129
 All quantities printed in internal units (Hartrees-Bohrs-Radians)
 Mixed Optimization -- En-DIIS/RFO-DIIS
 Update second derivatives using D2CorX and points    1    2
 DE= -2.50D-03 DEPred=-2.84D-03 R= 8.82D-01
 SS=  1.41D+00  RLast= 2.37D-01 DXNew= 5.0454D-01 7.0952D-01
 Trust test= 8.82D-01 RLast= 2.37D-01 DXMaxT set to 5.05D-01
 ITU=  1  0
 Use linear search instead of GDIIS.
     Eigenvalues ---    0.00646   0.00706   0.00750   0.01084   0.01249
     Eigenvalues ---    0.01473   0.01492   0.01549   0.02056   0.02067
     Eigenvalues ---    0.02076   0.02111   0.02116   0.02129   0.02143
     Eigenvalues ---    0.02158   0.05265   0.06533   0.07040   0.07111
     Eigenvalues ---    0.07181   0.07471   0.10162   0.13525   0.15591
     Eigenvalues ---    0.15960   0.15998   0.16000   0.16000   0.16000
     Eigenvalues ---    0.16000   0.16000   0.16000   0.16000   0.16183
     Eigenvalues ---    0.21280   0.22000   0.22144   0.23413   0.23530
     Eigenvalues ---    0.24921   0.24990   0.24992   0.27076   0.31642
     Eigenvalues ---    0.32058   0.33675   0.34153   0.34233   0.34233
     Eigenvalues ---    0.34285   0.34347   0.34403   0.34432   0.34610
     Eigenvalues ---    0.34819   0.34861   0.34939   0.35129   0.38549
     Eigenvalues ---    0.41557   0.41855   0.45172   0.45313   0.45653
     Eigenvalues ---    0.45969   0.46376   0.50739   0.91429
 RFO step:  Lambda=-4.47707914D-04 EMin= 6.46496452D-03
 Quartic linear search produced a step of -0.05574.
 Iteration  1 RMS(Cart)=  0.04608435 RMS(Int)=  0.00046343
 Iteration  2 RMS(Cart)=  0.00073907 RMS(Int)=  0.00005812
 Iteration  3 RMS(Cart)=  0.00000016 RMS(Int)=  0.00005812
 Variable       Old X    -DE/DX   Delta X   Delta X   Delta X     New X
                                 (Linear)    (Quad)   (Total)
    R1        2.63709  -0.00074  -0.00007  -0.00136  -0.00144   2.63566
    R2        2.63677   0.00015  -0.00006   0.00043   0.00037   2.63714
    R3        2.05450  -0.00007   0.00017  -0.00057  -0.00039   2.05411
    R4        2.64769   0.00053  -0.00022   0.00156   0.00134   2.64903
    R5        2.05535   0.00017   0.00021  -0.00002   0.00019   2.05555
    R6        2.64365  -0.00008   0.00019  -0.00058  -0.00038   2.64327
    R7        2.05725  -0.00010   0.00010  -0.00048  -0.00038   2.05687
    R8        2.64597  -0.00058   0.00011  -0.00146  -0.00135   2.64463
    R9        2.64620  -0.00003   0.00034  -0.00080  -0.00046   2.64574
   R10        2.05537   0.00023   0.00036  -0.00017   0.00019   2.05555
   R11        2.86317  -0.00195  -0.00146  -0.00244  -0.00390   2.85927
   R12        2.87407  -0.00172  -0.00134  -0.00215  -0.00349   2.87058
   R13        2.87956  -0.00146  -0.00203   0.00020  -0.00183   2.87773
   R14        2.58660   0.00030   0.00027  -0.00006   0.00022   2.58681
   R15        2.31698   0.00049   0.00034  -0.00024   0.00010   2.31708
   R16        2.07355   0.00046  -0.00032   0.00197   0.00165   2.07520
   R17        2.06942  -0.00002   0.00000  -0.00004  -0.00004   2.06938
   R18        2.06987   0.00006  -0.00003   0.00023   0.00020   2.07007
   R19        2.07122   0.00024  -0.00030   0.00131   0.00101   2.07223
   R20        2.06200   0.00021   0.00024   0.00004   0.00028   2.06227
   R21        2.07112  -0.00023  -0.00024  -0.00009  -0.00033   2.07079
   R22        2.75791   0.00042  -0.00141   0.00414   0.00273   2.76064
   R23        2.06280   0.00063   0.00045   0.00075   0.00119   2.06399
   R24        2.07357  -0.00075  -0.00018  -0.00169  -0.00186   2.07170
   R25        1.90768   0.00080   0.00065   0.00025   0.00090   1.90857
    A1        2.09676  -0.00009   0.00001  -0.00039  -0.00038   2.09638
    A2        2.09336  -0.00009  -0.00002  -0.00054  -0.00056   2.09280
    A3        2.09306   0.00017   0.00001   0.00093   0.00094   2.09400
    A4        2.10672   0.00011  -0.00032   0.00116   0.00084   2.10756
    A5        2.08851   0.00014  -0.00043   0.00188   0.00145   2.08996
    A6        2.08795  -0.00025   0.00075  -0.00303  -0.00228   2.08567
    A7        2.09864  -0.00029   0.00014  -0.00147  -0.00132   2.09732
    A8        2.09139   0.00037  -0.00058   0.00320   0.00261   2.09401
    A9        2.09315  -0.00008   0.00044  -0.00173  -0.00131   2.09184
   A10        2.12301  -0.00060  -0.00071  -0.00090  -0.00160   2.12141
   A11        2.08715   0.00058   0.00012   0.00264   0.00275   2.08990
   A12        2.07291   0.00002   0.00060  -0.00168  -0.00109   2.07182
   A13        2.06574   0.00026   0.00077  -0.00071   0.00006   2.06579
   A14        2.11082  -0.00013  -0.00048   0.00058   0.00010   2.11092
   A15        2.10637  -0.00012  -0.00032   0.00025  -0.00006   2.10630
   A16        2.07549   0.00061   0.00009   0.00229   0.00238   2.07787
   A17        2.11162  -0.00002  -0.00040   0.00087   0.00046   2.11207
   A18        2.09550  -0.00058   0.00031  -0.00284  -0.00255   2.09295
   A19        2.01070  -0.00211  -0.00136  -0.00463  -0.00616   2.00454
   A20        2.14506  -0.00250  -0.00048  -0.00807  -0.00872   2.13634
   A21        2.12700   0.00462   0.00185   0.01362   0.01530   2.14230
   A22        1.94013   0.00024  -0.00116   0.00277   0.00161   1.94175
   A23        1.94548  -0.00031  -0.00059   0.00004  -0.00055   1.94493
   A24        1.94570  -0.00022  -0.00056   0.00061   0.00005   1.94575
   A25        1.87448  -0.00018   0.00148  -0.00563  -0.00415   1.87033
   A26        1.87495  -0.00018   0.00141  -0.00520  -0.00378   1.87117
   A27        1.87963   0.00067  -0.00044   0.00714   0.00670   1.88633
   A28        1.91656  -0.00042  -0.00059  -0.00247  -0.00306   1.91350
   A29        1.90124  -0.00071   0.00052  -0.00472  -0.00420   1.89704
   A30        1.96555  -0.00006  -0.00172   0.00417   0.00246   1.96801
   A31        1.88924   0.00027   0.00119  -0.00260  -0.00144   1.88781
   A32        1.88851   0.00009   0.00111  -0.00302  -0.00189   1.88661
   A33        1.90125   0.00087  -0.00043   0.00851   0.00808   1.90933
   A34        1.98133  -0.00008  -0.00285   0.00446   0.00164   1.98297
   A35        1.92670  -0.00020   0.00000   0.00088   0.00083   1.92752
   A36        1.92470   0.00031   0.00018  -0.00063  -0.00037   1.92433
   A37        1.84345   0.00040   0.00480  -0.00646  -0.00169   1.84176
   A38        1.90461  -0.00093  -0.00156  -0.00657  -0.00808   1.89653
   A39        1.87885   0.00052  -0.00041   0.00839   0.00796   1.88681
   A40        2.14177  -0.00141   0.00056  -0.00797  -0.00761   2.13415
   A41        2.07920   0.00015  -0.00003  -0.00131  -0.00155   2.07765
   A42        2.05820   0.00121  -0.00037   0.00580   0.00522   2.06342
    D1       -0.00043  -0.00007   0.00068  -0.00503  -0.00435  -0.00477
    D2       -3.13730  -0.00012   0.00014  -0.00535  -0.00521   3.14068
    D3        3.13818   0.00001   0.00083  -0.00242  -0.00159   3.13660
    D4        0.00131  -0.00004   0.00028  -0.00273  -0.00245  -0.00114
    D5       -0.00280   0.00007   0.00074   0.00036   0.00110  -0.00170
    D6        3.13844  -0.00007   0.00051  -0.00496  -0.00446   3.13398
    D7       -3.14141  -0.00001   0.00059  -0.00225  -0.00166   3.14011
    D8       -0.00018  -0.00015   0.00036  -0.00757  -0.00721  -0.00739
    D9        0.00240   0.00008  -0.00150   0.00800   0.00651   0.00890
   D10       -3.11487   0.00003  -0.00038   0.00231   0.00193  -3.11293
   D11        3.13927   0.00013  -0.00095   0.00832   0.00738  -3.13654
   D12        0.02201   0.00008   0.00017   0.00263   0.00280   0.02481
   D13        0.00393  -0.00008  -0.00129   0.00113  -0.00016   0.00378
   D14       -3.10106  -0.00025  -0.00157  -0.00907  -0.01065  -3.11171
   D15       -3.13730   0.00006  -0.00107   0.00645   0.00539  -3.13191
   D16        0.04089  -0.00010  -0.00134  -0.00375  -0.00510   0.03579
   D17       -0.00121  -0.00010   0.00093  -0.00654  -0.00561  -0.00682
   D18        3.11612  -0.00005  -0.00020  -0.00086  -0.00104   3.11507
   D19        3.12415   0.00004   0.00159  -0.00199  -0.00039   3.12375
   D20       -0.04171   0.00009   0.00046   0.00370   0.00417  -0.03754
   D21       -0.00193   0.00010   0.00046   0.00203   0.00248   0.00055
   D22        3.10341   0.00027   0.00071   0.01222   0.01292   3.11633
   D23       -3.12742  -0.00004  -0.00020  -0.00252  -0.00271  -3.13013
   D24       -0.02208   0.00013   0.00006   0.00766   0.00773  -0.01435
   D25        1.57187   0.00003  -0.00052   0.00124   0.00072   1.57258
   D26       -2.62061  -0.00024   0.00018  -0.00400  -0.00383  -2.62444
   D27       -0.51958   0.00025  -0.00115   0.00554   0.00439  -0.51519
   D28       -1.54483  -0.00002   0.00061  -0.00458  -0.00397  -1.54880
   D29        0.54588  -0.00030   0.00130  -0.00981  -0.00851   0.53737
   D30        2.64691   0.00019  -0.00003  -0.00027  -0.00029   2.64661
   D31        1.68940   0.00004  -0.00496   0.06400   0.05902   1.74842
   D32       -2.52788   0.00036  -0.00078   0.05932   0.05852  -2.46935
   D33       -0.45393   0.00107  -0.00117   0.06985   0.06868  -0.38526
   D34       -1.41518  -0.00016  -0.00523   0.05357   0.04834  -1.36684
   D35        0.65073   0.00017  -0.00106   0.04889   0.04784   0.69857
   D36        2.72468   0.00088  -0.00145   0.05942   0.05799   2.78267
   D37        1.48453   0.00041  -0.00057   0.03269   0.03201   1.51655
   D38       -2.73245   0.00007   0.00084   0.02528   0.02602  -2.70642
   D39       -0.62120   0.00063  -0.00045   0.03548   0.03492  -0.58628
   D40       -1.62623  -0.00011  -0.00094  -0.00078  -0.00162  -1.62785
   D41        0.43998  -0.00045   0.00047  -0.00819  -0.00761   0.43236
   D42        2.55122   0.00011  -0.00082   0.00201   0.00129   2.55251
   D43       -3.07168  -0.00004  -0.00214   0.00021  -0.00213  -3.07381
   D44       -0.02828  -0.00061   0.00031  -0.04186  -0.04166  -0.06993
   D45        0.03943   0.00033  -0.00181   0.03287   0.03117   0.07060
   D46        3.08284  -0.00024   0.00064  -0.00920  -0.00836   3.07448
   D47        1.70760  -0.00017   0.00286  -0.01820  -0.01532   1.69228
   D48       -1.33693   0.00045   0.00043   0.02376   0.02425  -1.31267
   D49       -0.40572  -0.00015   0.00142  -0.01754  -0.01616  -0.42188
   D50        2.83294   0.00047  -0.00102   0.02442   0.02341   2.85636
   D51       -2.42123  -0.00051   0.00018  -0.02081  -0.02069  -2.44192
   D52        0.81743   0.00010  -0.00225   0.02115   0.01888   0.83632
         Item               Value     Threshold  Converged?
 Maximum Force            0.004625     0.000450     NO 
 RMS     Force            0.000701     0.000300     NO 
 Maximum Displacement     0.142494     0.001800     NO 
 RMS     Displacement     0.046111     0.001200     NO 
 Predicted change in Energy=-2.409509D-04
 GradGradGradGradGradGradGradGradGradGradGradGradGradGradGradGradGradGrad

                          Input orientation:                          
 ---------------------------------------------------------------------
 Center     Atomic      Atomic             Coordinates (Angstroms)
 Number     Number       Type             X           Y           Z
 ---------------------------------------------------------------------
      1          6           0        1.080041   -1.733222   -0.151174
      2          6           0        0.783065   -0.565050    0.550572
      3          6           0        2.012921   -2.637749    0.357775
      4          6           0        2.345002   -1.200484    2.266375
      5          6           0        1.408404   -0.284859    1.773479
      6          6           0        2.655523   -2.376094    1.572325
      7          6           0        5.803193   -2.216594    2.827757
      8          6           0        1.062522    0.962860    2.556372
      9          6           0        7.181603   -1.761698    2.367256
     10          6           0        3.702168   -3.328215    2.125041
     11          7           0        5.075448   -2.891575    1.885088
     12          8           0        5.382104   -1.996060    3.958015
     13          1           0        0.583518   -1.938992   -1.095985
     14          1           0        0.055579    0.136250    0.147907
     15          1           0        2.237766   -3.552127   -0.188192
     16          1           0        2.855985   -0.997373    3.204909
     17          1           0        0.237666    0.777230    3.257149
     18          1           0        1.915280    1.314107    3.146802
     19          1           0        0.748565    1.777491    1.894717
     20          1           0        7.102543   -0.783153    1.878710
     21          1           0        7.824815   -1.654097    3.242274
     22          1           0        7.643641   -2.459125    1.659499
     23          1           0        3.607175   -3.411358    3.209939
     24          1           0        3.571448   -4.327702    1.693990
     25          1           0        5.452455   -2.991196    0.953429
 ---------------------------------------------------------------------
                    Distance matrix (angstroms):
                    1          2          3          4          5
     1  C    0.000000
     2  C    1.394729   0.000000
     3  C    1.395516   2.417809   0.000000
     4  C    2.780014   2.405702   2.412211   0.000000
     5  C    2.431021   1.401804   2.811717   1.399476   0.000000
     6  C    2.421957   2.798206   1.398760   1.400067   2.443161
     7  C    5.604984   5.754551   4.543605   3.647837   4.915006
     8  C    3.820991   2.536895   4.324520   2.531584   1.513063
     9  C    6.600936   6.758225   5.614335   4.870097   5.988611
    10  C    3.821087   4.316850   2.540379   2.527669   3.827136
    11  N    4.631568   5.061443   3.431644   3.234270   4.500515
    12  O    5.955020   5.899967   4.972412   3.566311   4.846721
    13  H    1.086989   2.153761   2.155197   3.866999   3.413271
    14  H    2.152649   1.087749   3.401516   3.393556   2.156375
    15  H    2.156412   3.403609   1.088449   3.400973   3.900132
    16  H    3.867654   3.395498   3.392310   1.087752   2.156887
    17  H    4.316089   3.069973   4.818712   3.055135   2.167933
    18  H    4.567328   3.399051   4.837910   2.698701   2.167864
    19  H    4.076843   2.701002   4.843050   3.399276   2.168726
    20  H    6.426009   6.461217   5.626457   4.791518   5.716869
    21  H    7.550743   7.616924   6.562470   5.584486   6.723281
    22  H    6.847358   7.203107   5.781989   5.479785   6.604439
    23  H    4.527651   4.811372   3.357819   2.715024   4.083260
    24  H    4.042656   4.820792   2.659025   3.407534   4.585811
    25  H    4.681949   5.277469   3.508578   3.819259   4.934683
                    6          7          8          9         10
     6  C    0.000000
     7  C    3.392547   0.000000
     8  C    3.828135   5.714591   0.000000
     9  C    4.636248   1.522828   6.700906   0.000000
    10  C    1.519044   2.478672   5.056392   3.823495   0.000000
    11  N    2.493908   1.368882   5.604540   2.438237   1.460866
    12  O    3.642827   1.226146   5.420203   2.413221   2.820747
    13  H    3.406485   6.535887   4.689340   7.453872   4.693712
    14  H    3.885943   6.764063   2.738233   7.701165   5.404553
    15  H    2.158007   4.857146   5.412849   5.846151   2.746936
    16  H    2.146250   3.211664   2.734890   4.471782   2.704620
    17  H    4.316030   6.334228   1.098150   7.446900   5.489911
    18  H    4.079770   5.261513   1.095070   6.148368   5.078200
    19  H    4.581778   6.509420   1.095435   7.357522   5.902970
    20  H    4.733637   2.154937   6.323737   1.096575   4.254476
    21  H    5.480108   2.138967   7.283374   1.091309   4.587711
    22  H    4.989570   2.193376   7.471646   1.095812   4.062912
    23  H    2.158517   2.529035   5.102568   4.025920   1.092217
    24  H    2.159281   3.274583   5.918485   4.480054   1.096298
    25  H    2.929882   2.058187   6.121724   2.549614   2.133017
                   11         12         13         14         15
    11  N    0.000000
    12  O    2.278818   0.000000
    13  H    5.474636   6.969405   0.000000
    14  H    6.114296   6.887346   2.476413   0.000000
    15  H    3.575927   5.431320   2.482504   4.298724   0.000000
    16  H    3.202491   2.818834   4.954639   4.297981   4.292097
    17  H    6.224694   5.886220   5.142689   3.179842   5.883375
    18  H    5.409838   4.861496   5.509763   3.720108   5.908165
    19  H    6.365704   6.321912   4.773236   2.495044   5.912787
    20  H    2.924824   2.958811   7.258268   7.314417   5.967023
    21  H    3.306406   2.568279   8.446185   8.552279   6.825374
    22  H    2.614100   3.257630   7.596615   8.160856   5.816537
    23  H    2.044806   2.390201   5.463638   5.880085   3.666386
    24  H    2.088300   3.720328   4.734725   5.888852   2.433687
    25  H    1.009974   3.165878   5.386444   6.289361   3.457191
                   16         17         18         19         20
    16  H    0.000000
    17  H    3.163469   0.000000
    18  H    2.496245   1.764879   0.000000
    19  H    3.722592   1.765717   1.773038   0.000000
    20  H    4.453982   7.173662   5.737095   6.850562   0.000000
    21  H    5.012181   7.967207   6.613770   7.979036   1.771871
    22  H    5.238957   8.238625   7.018795   8.096068   1.774746
    23  H    2.528169   5.375880   5.019614   6.068411   4.571349
    24  H    3.726374   6.294275   6.056696   6.729216   5.006654
    25  H    3.973179   6.833899   5.988166   6.764095   2.907644
                   21         22         23         24         25
    21  H    0.000000
    22  H    1.784957   0.000000
    23  H    4.569190   4.427603   0.000000
    24  H    5.257041   4.480572   1.771740   0.000000
    25  H    3.557350   2.362823   2.945069   2.423399   0.000000
 Stoichiometry    C10H13NO
 Framework group  C1[X(C10H13NO)]
 Deg. of freedom    69
 Full point group                 C1      NOp   1
 Largest Abelian subgroup         C1      NOp   1
 Largest concise Abelian subgroup C1      NOp   1
                         Standard orientation:                         
 ---------------------------------------------------------------------
 Center     Atomic      Atomic             Coordinates (Angstroms)
 Number     Number       Type             X           Y           Z
 ---------------------------------------------------------------------
      1          6           0        2.575673   -1.480708    0.491084
      2          6           0        3.000935   -0.152522    0.509677
      3          6           0        1.305433   -1.802519    0.011094
      4          6           0        0.894702    0.533414   -0.428769
      5          6           0        2.167092    0.873709    0.044261
      6          6           0        0.452656   -0.794844   -0.451393
      7          6           0       -2.715767    0.312495    0.042842
      8          6           0        2.637717    2.311628    0.028143
      9          6           0       -3.694077    0.458104    1.200735
     10          6           0       -0.947993   -1.118926   -0.941954
     11          7           0       -1.990805   -0.848652    0.044770
     12          8           0       -2.591897    1.170267   -0.824520
     13          1           0        3.235324   -2.266105    0.851025
     14          1           0        3.991918    0.091641    0.885885
     15          1           0        0.978511   -2.840517   -0.009020
     16          1           0        0.222929    1.313679   -0.779642
     17          1           0        3.127147    2.559661   -0.923105
     18          1           0        1.801623    3.007800    0.152516
     19          1           0        3.362935    2.505359    0.825956
     20          1           0       -3.181596    0.902161    2.062508
     21          1           0       -4.496779    1.132490    0.897704
     22          1           0       -4.123044   -0.499623    1.516250
     23          1           0       -1.199967   -0.504788   -1.809296
     24          1           0       -1.011561   -2.171991   -1.240084
     25          1           0       -2.094856   -1.490316    0.817743
 ---------------------------------------------------------------------
 Rotational constants (GHZ):      1.6142189      0.5268949      0.4432504
 Standard basis: 6-31G(d) (6D, 7F)
 There are   206 symmetry adapted basis functions of A   symmetry.
 Integral buffers will be    131072 words long.
 Raffenetti 2 integral format.
 Two-electron integral symmetry is turned on.
   206 basis functions,   388 primitive gaussians,   206 cartesian basis functions
    44 alpha electrons       44 beta electrons
       nuclear repulsion energy       661.6974506341 Hartrees.
 NAtoms=   25 NActive=   25 NUniq=   25 SFac= 1.00D+00 NAtFMM=   60 NAOKFM=F Big=F
 One-electron integrals computed using PRISM.
 NBasis=   206 RedAO= T  NBF=   206
 NBsUse=   206 1.00D-06 NBFU=   206
 Initial guess read from the read-write file.
 B after Tr=     0.000000    0.000000    0.000000
         Rot=    1.000000    0.000000    0.000000    0.000000 Ang=   0.00 deg.
 Initial guess orbital symmetries:
       Occupied  (A) (A) (A) (A) (A) (A) (A) (A) (A) (A) (A) (A)
                 (A) (A) (A) (A) (A) (A) (A) (A) (A) (A) (A) (A)
                 (A) (A) (A) (A) (A) (A) (A) (A) (A) (A) (A) (A)
                 (A) (A) (A) (A) (A) (A) (A) (A)
       Virtual   (A) (A) (A) (A) (A) (A) (A) (A) (A) (A) (A) (A)
                 (A) (A) (A) (A) (A) (A) (A) (A) (A) (A) (A) (A)
                 (A) (A) (A) (A) (A) (A) (A) (A) (A) (A) (A) (A)
                 (A) (A) (A) (A) (A) (A) (A) (A) (A) (A) (A) (A)
                 (A) (A) (A) (A) (A) (A) (A) (A) (A) (A) (A) (A)
                 (A) (A) (A) (A) (A) (A) (A) (A) (A) (A) (A) (A)
                 (A) (A) (A) (A) (A) (A) (A) (A) (A) (A) (A) (A)
                 (A) (A) (A) (A) (A) (A) (A) (A) (A) (A) (A) (A)
                 (A) (A) (A) (A) (A) (A) (A) (A) (A) (A) (A) (A)
                 (A) (A) (A) (A) (A) (A) (A) (A) (A) (A) (A) (A)
                 (A) (A) (A) (A) (A) (A) (A) (A) (A) (A) (A) (A)
                 (A) (A) (A) (A) (A) (A) (A) (A) (A) (A) (A) (A)
                 (A) (A) (A) (A) (A) (A) (A) (A) (A) (A) (A) (A)
                 (A) (A) (A) (A) (A) (A)
 Harris functional with IExCor=  402 diagonalized for initial guess.
 ExpMin= 1.61D-01 ExpMax= 5.48D+03 ExpMxC= 8.25D+02 IAcc=3 IRadAn=         5 AccDes= 0.00D+00
 HarFok:  IExCor=  402 AccDes= 0.00D+00 IRadAn=         5 IDoV= 1
 ScaDFX=  1.000000  1.000000  1.000000  1.000000
 FoFCou: FMM=F IPFlag=           0 FMFlag=      100000 FMFlg1=           0
         NFxFlg=           0 DoJE=T BraDBF=F KetDBF=T FulRan=T
         Omega=  0.000000  0.000000  1.000000  0.000000  0.000000 ICntrl=     500 IOpCl=  0
         NMat0=    1 NMatS0=    1 NMatT0=    0 NMatD0=    1 NMtDS0=    0 NMtDT0=    0
         I1Cent=           4 NGrid=           0.
 Petite list used in FoFCou.
[...]
 3697,0.00013323,-0.00000577,0.00001878,-0.00005059,-0.00008253,0.00047
 629,-0.00044771,0.00006413,0.00003892,-0.00010583,0.00048246,0.0002772
 2,-0.00035603,-0.01249002,0.05186508,-0.00036005,0.00025384,0.00039746
 ,0.00014749,-0.00102073,0.00093361,0.00042126,-0.00029242,0.00002983,-
 0.00051628,0.00002893,-0.00125797,0.01404060,-0.00142932,-0.00480079,-
 0.00015867,-0.00040039,0.00008059,-0.00008250,-0.00008482,-0.00016584,
 0.07910723,-0.00420867,-0.07590790,0.00001218,0.00000015,0.00000532,-0
 .00019013,-0.00011701,-0.00007144,0.00011315,0.00006393,0.00008529,0.0
 0001682,0.00005284,0.00008694,-0.00001934,0.00000904,-0.00002383,-0.00
 028997,0.00021054,-0.00056585,-0.00004172,0.00000612,0.00001644,0.0001
 0232,-0.00006268,0.00017090,-0.08758871,0.00649366,0.07726891,0.000384
 64,0.00035673,0.00013336,0.00048263,0.00128668,0.00005326,0.00010448,-
 0.00005662,0.00007697,0.00026997,0.00077126,0.00115036,0.00359326,0.00
 045612,0.00604514,0.00007783,-0.00023786,0.00008414,-0.00005090,-0.000
 01063,-0.00010027,-0.14903505,-0.01546725,-0.12934224,0.00000191,0.000
 00913,0.00000959,-0.00007941,-0.00001305,-0.00003955,0.00006508,-0.000
 00415,0.00006768,0.00000498,-0.00001401,0.00008037,-0.00008664,0.00000
 626,0.00010142,0.00001311,-0.00002716,0.00031922,0.00001485,-0.0000247
 8,-0.00000146,0.00027576,-0.00004109,-0.00007848,-0.01771212,-0.002320
 88,-0.02558252,0.15774302,-0.00097339,0.00046633,-0.00117245,0.0024871
 1,-0.00518478,-0.00211505,0.00013187,0.00002537,0.00017326,-0.00169434
 ,0.00145038,-0.00071634,-0.01907386,-0.00274187,-0.02372083,-0.0000656
 9,-0.00004146,-0.00000216,0.00006853,-0.00005216,-0.00021857,-0.013041
 43,-0.05195443,-0.01714884,-0.00000922,-0.00000491,0.00001338,-0.00006
 358,0.00004973,0.00002146,0.00005741,0.00002445,0.00008088,-0.00012975
 ,0.00006454,0.00012337,0.00001962,-0.00044656,-0.00018543,-0.00015470,
 -0.00001537,0.00001807,0.00005514,-0.00000551,0.00005825,0.00084940,-0
 .00026055,0.00055084,0.00017776,-0.00077705,0.00122243,0.01403061,0.05
 593207,-0.00090004,0.00039296,-0.00026059,0.00100257,-0.00354158,-0.00
 029606,0.00022921,-0.00004747,0.00022038,-0.00075021,0.00220680,0.0006
 3246,-0.00927117,-0.00067909,-0.01269823,0.00020742,-0.00019384,-0.000
 05916,-0.00005947,-0.00018101,-0.00027946,-0.12746995,-0.02002266,-0.2
 1575474,0.00000998,-0.00000527,-0.00000142,-0.00015411,0.00000967,-0.0
 0001969,0.00017619,0.00010379,0.00013373,-0.00002888,0.00012848,0.0001
 4514,0.00011284,-0.00021270,-0.00019418,0.00021664,0.00016965,0.000114
 25,0.00006021,-0.00003262,0.00004292,0.00060016,-0.00048882,0.00065440
 ,0.00690863,0.00135398,0.01061373,0.14124090,0.02329969,0.23225430,-0.
 00049116,0.00046959,0.00024647,0.00068166,-0.00098551,-0.00083980,0.00
 025195,-0.00019785,0.00017892,-0.00038706,0.00124645,0.00075723,0.0003
 2134,0.00685420,-0.00403772,-0.00075325,-0.00023940,0.00022502,0.00004
 691,0.00004475,-0.00001923,-0.05310099,-0.03243406,0.02310937,-0.00000
 470,-0.00000239,0.00000810,0.00007548,0.00008444,0.00000931,-0.0000163
 8,-0.00003442,-0.00000113,-0.00004905,-0.00001201,0.00001598,0.0000115
 5,0.00001446,-0.00000563,-0.00002500,-0.00003219,-0.00026855,0.0000795
 8,0.00007721,-0.00004615,0.00043162,0.00019187,-0.00015831,-0.00444031
 ,-0.02568338,0.02082698,0.00391017,0.01732189,-0.01219645,0.05352400,0
 .00098591,-0.00018022,-0.00063643,0.00157195,0.00165797,0.00107983,-0.
 00021472,-0.00014723,-0.00015052,-0.00109979,-0.00221591,-0.00228416,-
 0.00217015,-0.02383587,0.01500698,0.00131613,0.00035218,-0.00055342,-0
 .00021015,-0.00014215,-0.00017447,-0.03279914,-0.20361098,0.12472816,0
 .00002321,0.00002213,0.00000340,-0.00022885,-0.00013790,-0.00019797,0.
 00018641,0.00008066,0.00013331,0.00012169,0.00004277,0.00009442,-0.000
 04988,-0.00004056,-0.00003454,-0.00103983,-0.00011528,-0.00008767,-0.0
 0013707,-0.00008147,0.00003842,-0.00041161,-0.00022546,0.00032943,-0.0
 0053349,0.00151002,-0.00073657,0.00132282,0.00347507,-0.00226226,0.033
 27502,0.22364771,-0.00004132,0.00094808,0.00039508,0.00007665,-0.00088
 080,-0.00015454,0.00051110,-0.00057215,0.00036809,-0.00038221,-0.00048
 425,-0.00073364,-0.00293863,-0.01471855,0.01216787,0.00051845,-0.00025
 278,-0.00066135,0.00001800,-0.00001698,-0.00013869,0.02306599,0.122813
 30,-0.14593771,-0.00000546,0.00000040,0.00001019,-0.00001696,-0.000052
 34,-0.00013502,0.00001697,0.00002719,0.00006969,-0.00005750,0.00002572
 ,0.00009087,-0.00003058,0.00004448,0.00001032,-0.00010181,0.00029620,-
 0.00014195,0.00005280,0.00005510,-0.00002404,0.00016557,-0.00013592,0.
 00020640,0.00117038,0.00753393,-0.00688939,0.00577924,0.01969927,-0.01
 524281,-0.02779152,-0.13431473,0.15670815,0.00003562,0.00001326,-0.000
 02868,-0.00003935,0.00003969,-0.00000925,-0.00009943,0.00013041,-0.000
 00340,-0.00002222,0.00005054,-0.00012994,0.00000467,0.00000126,-0.0000
 1955,-0.00024714,-0.00044745,0.00011904,0.00099317,-0.03493156,-0.0034
 5818,-0.00000720,-0.00000294,-0.00003476,-0.04448481,0.00295743,0.0030
 6723,-0.00076032,0.00124695,-0.00087307,-0.00403492,-0.00021578,0.0009
 9354,0.00020049,0.00373900,-0.00110081,-0.00001316,0.00001093,-0.00000
 783,-0.00000591,0.00000207,0.00000324,-0.00000833,-0.00000964,0.000022
 45,-0.00000382,-0.00007268,0.00009491,0.00001404,0.00001079,0.00000780
 ,-0.00000911,0.00000062,0.00003138,-0.00001551,0.00002075,-0.00000122,
 0.04919818,0.00000689,0.00002510,-0.00000795,-0.00002429,0.00001303,-0
 .00001533,-0.00003419,0.00004981,0.00003394,-0.00004898,-0.00000118,-0
 .00008108,0.00001058,-0.00001200,0.00000020,-0.00010478,-0.00016390,0.
 00006889,0.00019810,-0.01172309,-0.00244770,-0.00000839,-0.00000360,-0
 .00001687,0.00520395,-0.31507059,-0.02713690,0.00006806,0.00036782,-0.
 00033485,-0.00178785,0.00001166,0.00118247,-0.00012326,0.00247178,-0.0
 0001398,-0.00000577,0.00000631,-0.00000716,-0.00000439,0.00000404,-0.0
 0000072,0.00000039,-0.00000304,0.00001389,0.00000889,-0.00001526,0.000
 01547,0.00000275,0.00000709,0.00000464,-0.00000062,0.00000088,0.000012
 70,-0.00000590,0.00001251,0.00000066,-0.00419351,0.34025715,0.00000463
 ,0.00000467,-0.00000028,-0.00000159,0.00000430,-0.00000778,0.00000653,
 -0.00000899,-0.00001546,0.00002498,0.00001132,-0.00002220,-0.00001007,
 0.00003074,0.00000134,-0.00003174,-0.00001509,0.00003829,-0.00229440,0
 .00752257,-0.00053496,0.00000825,-0.00000097,0.00001237,0.00284185,-0.
 02710486,-0.05016338,-0.00002156,0.00011491,0.00010382,-0.00048294,0.0
 0007463,-0.00002258,0.00127992,-0.00115929,-0.00016328,0.00000015,-0.0
 0000131,0.00000204,-0.00000098,-0.00000172,0.00000474,0.00000054,0.000
 00309,0.00000633,-0.00003200,0.00002567,0.00002136,0.00000607,-0.00000
 049,-0.00000428,-0.00000369,0.00000135,0.00000179,-0.00000763,0.000005
 24,-0.00000199,-0.00188217,0.03020953,0.04914724,0.00000967,-0.0000030
 6,0.00000442,-0.00001165,0.00002295,-0.00000186,-0.00002853,0.00005064
 ,-0.00000720,-0.00004089,0.00000171,-0.00003785,0.00000795,-0.00001838
 ,0.00000080,0.00022391,-0.00003196,0.00004491,-0.02193611,0.01188769,-
 0.02256880,-0.00001241,-0.00000339,-0.00001064,-0.17397785,0.06913557,
 -0.11749605,0.00039418,-0.00145107,-0.00066261,-0.00348161,-0.00178445
 ,0.00272335,0.00410502,-0.00202339,0.00154322,-0.00000939,0.00000301,-
 0.00000909,-0.00000798,0.00000577,-0.00000154,0.00000872,-0.00000043,0
 .00001431,-0.00000114,0.00001437,-0.00002597,-0.00000654,0.00000865,0.
 00000500,0.00000538,0.00000035,0.00000287,0.,0.00000920,0.00000200,0.0
 0013655,0.00019072,0.00038457,0.18739822,0.00000653,-0.00000677,0.0000
 0579,-0.00000400,0.00001338,-0.00000226,-0.00001151,0.00001268,-0.0000
 1753,-0.00000047,0.00000496,-0.00001556,-0.00000761,0.00000898,-0.0000
 0512,0.00017951,-0.00000646,-0.00000501,-0.01239382,0.00490312,-0.0102
 5519,0.00000009,-0.00000078,-0.00000359,0.06825008,-0.07910001,0.06273
 311,0.00004924,-0.00105854,-0.00011265,-0.00187574,-0.00129292,0.00074
 086,0.00179755,-0.00030195,-0.00055483,-0.00000155,0.00000061,-0.00000
 023,-0.00000208,-0.00000064,0.00000256,0.00000321,0.00000429,0.0000071
 8,-0.00002547,0.00000371,0.00000778,0.00000562,0.00000284,0.00000116,-
 0.00000402,0.00000082,0.00000809,-0.00000601,0.00000565,-0.00000109,0.
 02344776,-0.01117379,0.02221489,-0.07163845,0.08505672,0.00000419,-0.0
 0000195,0.00000665,0.00000126,-0.00000456,0.00000455,-0.00000975,0.000
 00904,0.00001042,-0.00000754,-0.00001716,-0.00002702,0.00000248,0.0000
 0234,0.00000520,-0.00001140,-0.00001302,-0.00002298,0.00561300,-0.0053
 8191,0.00506455,-0.00000043,0.00000058,-0.00000216,-0.11813267,0.06303
 531,-0.16039783,0.00006577,0.00025720,0.00035521,0.00017456,0.00053496
 ,-0.00018478,0.00022018,0.00075335,-0.00003542,0.00000064,0.00000087,-
 0.00000153,0.00000172,0.00000151,0.00000048,0.00000234,0.00000357,-0.0
 0000320,-0.00002349,0.00001723,0.00000203,-0.00000231,-0.00000039,0.00
 000130,0.00000093,0.00000211,-0.00000039,0.00000324,-0.00000302,0.0000
 0081,0.00341345,-0.00151753,0.00252850,0.12926177,-0.06951194,0.169576
 87,-0.00001019,-0.00000647,-0.00001516,-0.00000652,0.00001286,-0.00000
 330,0.00000272,-0.00000914,-0.00001244,0.00004333,0.00008515,0.0000982
 4,-0.00001419,-0.00002383,-0.00003179,0.00005976,0.00001017,0.00000871
 ,0.00040653,0.01319438,0.02842817,0.00000756,-0.00000109,0.00000847,-0
 .07095090,0.01514103,0.06372934,0.00027081,0.00018653,-0.00037132,0.00
 071012,-0.00062236,-0.00174745,-0.00787945,-0.00437584,0.00364823,-0.0
 0000397,-0.00000149,-0.00000128,-0.00000533,-0.00000126,-0.00000588,-0
 .00000553,-0.00001216,-0.00000473,0.00005254,-0.00008118,0.00000038,0.
 00000072,0.00000018,-0.00000184,-0.00000198,-0.00000856,-0.00000232,-0
 .00000553,0.00000712,-0.00000437,-0.00104805,0.00042611,-0.00032201,0.
 00792130,-0.00730913,-0.02081567,0.07213256,-0.00000445,-0.00000321,0.
 00000548,0.00000139,-0.00000480,0.00000713,0.00000398,-0.00000900,0.00
 002272,-0.00000040,0.00000984,0.00001725,0.00000585,-0.00001593,-0.000
 00925,0.00002895,0.00004273,-0.00002944,0.00067429,0.00143491,0.012918
 44,-0.00000260,0.00000087,-0.00001340,0.01601561,-0.06407658,-0.059481
 76,0.00025241,0.00016528,0.00007409,0.00026852,-0.00050511,-0.00057419
 ,-0.00451023,0.00082367,0.00161439,0.00000402,0.00000122,0.00000085,0.
 00000160,-0.00000137,-0.00000219,0.00000073,0.00000201,-0.00000728,0.0
 0000807,-0.00003777,0.00001022,0.00000057,0.00000058,0.00000354,-0.000
 00063,-0.00000135,0.00000528,0.00000180,-0.00000298,-0.00000018,0.0087
 5516,-0.00474891,-0.03147310,-0.00469145,0.00262508,0.01146305,-0.0158
 8666,0.06368883,0.00000061,0.00001239,0.00001004,0.00000877,-0.0000170
 1,0.00000248,0.00002237,-0.00003111,0.00001482,-0.00002129,-0.00006211
 ,-0.00007642,0.00001312,0.00003097,0.00002620,-0.00006014,0.00006565,-
 0.00002335,-0.00348921,-0.00322341,-0.00922181,-0.00000742,0.00000302,
 -0.00001190,0.06666448,-0.05789508,-0.28205031,0.00046638,0.00036208,0
 .00040398,-0.00135434,0.00038133,0.00087306,0.00348893,0.00105887,0.00
 167949,0.00000944,0.00000055,0.00000680,0.00000667,-0.00000334,0.00000
 701,0.00000225,0.00001287,0.00000233,-0.00004581,0.00005320,0.00001286
 ,0.00000485,-0.00000142,0.00000056,-0.00000020,0.00000644,0.00000621,0
 .00000215,-0.00000743,0.00000355,-0.00016167,-0.00021952,-0.00126664,0
 .00645225,-0.00553484,-0.01727703,-0.07210482,0.06535220,0.30532776,-0
 .00122130,-0.00029893,0.00029803,-0.00017331,0.00008281,-0.00032103,-0
 .00131147,0.00255284,-0.00034795,0.00028795,-0.00101688,-0.00002253,-0
 .00028499,-0.00045693,-0.00001538,0.00074479,0.00440154,-0.02415542,-0
 .00032883,0.00052676,0.00640529,0.00005815,-0.00005718,0.00001168,-0.0
 0000666,0.00018724,-0.00033104,-0.04777799,-0.00163799,0.01883330,-0.0
 1343487,-0.00714647,0.03765673,0.00118639,0.00099902,-0.00343440,-0.00
 024692,0.00010840,-0.00007126,0.00005866,0.00007629,-0.00003385,0.0003
 8039,0.00025237,-0.00027048,0.00037532,0.00030675,0.00018056,-0.000017
 63,0.00001509,-0.00000674,0.00001837,0.00003824,0.00002152,-0.00001034
 ,0.00000603,0.00000451,0.00006006,-0.00002371,-0.00004268,-0.00003811,
 -0.00005089,-0.00015441,0.00038041,0.00006114,-0.00019583,0.06629866,0
 .00060646,0.00046443,0.00018499,0.00004552,-0.00006332,0.00023782,0.00
 101088,-0.00241193,-0.00015810,0.00042191,0.00116204,0.00036906,0.0000
 5032,0.00031670,-0.00018700,0.00015655,-0.00257087,0.02230045,-0.00110
 223,0.00123909,0.00373271,-0.00003266,0.00003588,-0.00000606,0.0002133
 1,0.00025895,-0.00041372,-0.00267382,-0.05792800,0.03281233,-0.0058341
 3,-0.00242189,0.01437891,0.00143082,-0.00048886,-0.00198298,0.00023226
 ,-0.00010576,0.00003424,-0.00000630,0.00000566,-0.00004475,0.00000006,
 0.00020048,0.00024795,-0.00020186,-0.00062090,-0.00021991,-0.00000729,
 0.00000771,0.00000677,-0.00001164,-0.00004078,-0.00002436,0.00000147,0
 .00000903,-0.00000271,0.00004576,-0.00000660,-0.00002615,-0.00000493,-
 0.00001244,-0.00007560,0.00026039,0.00006494,-0.00011518,0.00364342,0.
 05745747,-0.00013459,-0.00054177,-0.00013112,0.00026861,0.00013311,0.0
 0043961,-0.00059102,0.00165314,-0.00013428,0.00083879,-0.00195374,0.00
 103255,-0.00091418,0.00016725,-0.00018384,-0.00311450,0.00180278,-0.00
 849086,-0.00093955,-0.00116968,-0.00145578,0.00002631,0.00001446,0.000
 00316,0.00033232,0.00010583,-0.00054388,0.02983880,0.03846342,-0.31066
 544,0.00734900,0.00190842,-0.00554312,-0.00289064,-0.00131705,-0.00060
 175,-0.00007429,0.00007971,-0.00003839,0.00007709,0.00008030,-0.000038
 36,0.00017374,0.00015204,0.00000882,0.00033890,0.00046501,0.00002355,0
 .00000275,-0.00000273,0.00000408,0.00000205,0.00001101,-0.00000337,0.0
 0000305,-0.00000202,0.00001170,-0.00000176,0.00002698,0.00002948,0.000
 00324,0.00000118,0.00000253,0.00021540,0.00012578,0.00014764,-0.031559
 63,-0.04204840,0.33644451,-0.00011656,0.00001644,-0.00008018,0.0000531
 7,-0.00007311,-0.00007010,0.00037506,0.00072546,0.00156271,-0.00271677
 ,0.00252003,-0.00310080,0.00003086,0.00071674,0.00098130,0.00140071,0.
 02068695,0.01033914,-0.00185565,-0.00251905,0.00733313,-0.00033227,0.0
 0001602,-0.00011201,-0.00102113,0.00080709,-0.00143764,-0.04704392,-0.
 00904584,-0.00384137,-0.01590896,-0.03395099,-0.02095160,0.00153808,0.
 00002250,-0.00170430,-0.00003288,0.00000721,-0.00002172,-0.00001326,-0
 .00001708,-0.00006698,0.00007510,-0.00044342,-0.00060403,0.00004197,-0
 .00007592,-0.00010006,-0.00003566,0.00011820,0.00005217,0.00002229,-0.
 00001824,0.00001440,-0.00002650,0.00006300,-0.00000052,0.00006821,-0.0
 0002182,0.00002735,-0.00052824,-0.00028242,0.00008498,0.00003188,0.000
 03212,0.00009125,0.00023361,0.00395060,0.00087702,0.06489129,0.0003071
 6,-0.00003682,0.00024688,0.00001395,0.00029044,0.00024331,-0.00206993,
 0.00099274,-0.00173719,0.00357913,-0.00157245,0.00272138,-0.00046877,-
 0.00054083,-0.00114869,0.00089707,-0.01985391,-0.01186836,0.00028815,-
 0.00031318,0.00415926,0.00018872,-0.00008796,0.00020036,-0.00029940,0.
 00020450,-0.00052615,-0.01051766,-0.25123710,-0.10414455,-0.01001987,-
 0.00827754,-0.00625824,0.00078348,0.00020858,-0.00063965,-0.00000304,-
 0.00000750,0.00003328,0.00002173,0.00005249,0.00008687,0.00048014,0.00
 070319,0.00116761,-0.00013036,0.00012705,0.00011477,0.00004524,-0.0000
 6338,-0.00001309,-0.00001951,0.00003729,0.00001362,0.00003329,-0.00007
 624,-0.00001256,-0.00001038,-0.00002268,0.00001668,-0.00016420,-0.0001
 0832,0.00002626,0.00000094,-0.00000261,0.00001568,0.00095752,0.0064684
 2,0.00137739,0.01640624,0.27318649,0.00026036,-0.00004633,0.00018884,0
 .00000623,0.00006799,0.00005377,0.00002790,0.00136991,0.00074553,-0.00
 172859,0.00045214,-0.00042945,-0.00023452,0.00034722,0.00048091,-0.000
 73783,0.01166942,0.00494469,0.00130473,-0.00028650,-0.00283717,-0.0000
 1641,0.00008004,-0.00010064,0.00031151,-0.00045941,0.00030201,-0.00724
 360,-0.10779309,-0.11047890,0.00242746,0.00790172,0.00551892,-0.002440
 49,-0.00057037,0.00092302,0.00005209,-0.00002546,0.00001311,0.00001804
 ,-0.00002583,0.00001211,0.00003481,-0.00023235,0.00002051,0.00007772,0
 .00032229,0.00005285,0.00000559,-0.00000429,-0.00000513,0.00000279,0.0
 0000218,0.00000097,-0.00001452,0.00002326,0.00001913,-0.00007864,-0.00
 001912,0.00000005,0.00012869,0.00003994,0.00000865,-0.00000019,-0.0000
 0024,0.00003562,-0.00204216,-0.02891487,-0.01112911,0.01057717,0.11588
 039,0.11148777,-0.00021045,0.00026767,-0.00013969,-0.00010737,-0.00018
 830,-0.00022337,0.00014407,0.00011322,-0.00037700,-0.00012648,0.000805
 79,-0.00023475,0.00019946,0.00002933,0.00026145,0.00112504,-0.00075716
 ,0.00069417,0.01128031,0.00936598,-0.01456056,-0.00000492,0.00000897,0
 .00000953,-0.00089833,0.00035010,-0.00186458,-0.00672503,0.00034655,0.
 02891324,-0.10422055,-0.03437655,0.12439903,0.00028558,-0.00582592,-0.
 00492491,-0.00000365,0.00001081,0.00001398,0.00001609,-0.00002228,0.00
 000170,-0.00011301,-0.00013927,0.00002848,-0.00008327,-0.00003847,0.00
 003039,0.00001873,-0.00001803,-0.00001452,-0.00001251,-0.00000578,-0.0
 0000232,-0.00000850,-0.00001458,-0.00000955,0.00008828,0.00027102,0.00
 054861,-0.00013045,-0.00012643,0.00030715,-0.00208860,-0.00101980,0.00
 020721,-0.00523033,-0.00219487,-0.00012693,0.00086957,-0.00029965,-0.0
 0069815,0.10593634,-0.00008133,-0.00003304,-0.00003453,0.00000296,-0.0
 0003314,-0.00002422,0.00004705,0.00037583,0.00038551,-0.00005656,-0.00
 036777,-0.00000356,0.00007604,-0.00014783,-0.00001187,0.00039912,0.000
 18715,-0.00095637,0.01254639,-0.00449585,-0.01657203,-0.00000002,-0.00
 000973,-0.00001496,0.00101013,-0.00279625,0.00072589,-0.00070980,-0.00
 267046,0.01310255,-0.03667739,-0.01693202,0.02628041,-0.00563364,0.003
 53497,-0.00467202,-0.00003628,0.00001284,-0.00002636,-0.00001058,0.000
 00020,-0.00001462,-0.00007577,-0.00011304,-0.00012731,-0.00000500,0.00
 003832,-0.00009752,-0.00002712,0.00000575,0.00000814,0.00001430,-0.000
 00016,-0.00001305,0.00001666,-0.00000342,0.00000071,-0.00058843,-0.000
 28255,-0.00044760,0.00048455,0.00041982,0.00041971,-0.00098569,0.00054
 967,-0.00024480,-0.00352649,-0.00101945,0.00046759,0.00035928,-0.00007
 069,0.00022137,0.03345763,0.02385084,-0.00001639,0.00010919,-0.0001490
 5,-0.00004335,-0.00006960,-0.00010537,0.00017134,0.00004597,-0.0000974
 7,-0.00006180,0.00027295,-0.00005333,0.00014521,-0.00003619,0.00015193
 ,0.00043427,-0.00076626,0.00077458,0.01502130,0.00760474,-0.01976060,-
 0.00001120,0.00000164,0.00000131,0.00072777,-0.00014812,0.00040543,-0.
 00354690,0.00052797,0.00237377,0.12432859,0.01432990,-0.40201701,-0.00
 412198,-0.00379185,-0.00097100,-0.00002791,0.00000623,-0.00000852,-0.0
 0001569,-0.00001097,0.00000301,-0.00008196,-0.00013940,0.00004585,0.00
 000121,-0.00002114,-0.00004162,-0.00000527,0.00000095,-0.00000254,0.00
 000101,-0.00000431,-0.00001020,0.00000081,0.00000276,-0.00000073,0.000
 03787,0.00024934,0.00030549,0.00025020,0.00025730,0.00038456,-0.000692
 38,-0.00002937,0.00136703,-0.00040683,-0.00008543,0.00081168,0.0001506
 9,0.00004477,0.00017194,-0.13223861,-0.01835106,0.41642086\\-0.0000037
 6,0.00000389,0.00000132,-0.00000209,-0.00000352,-0.00000404,0.00000626
 ,0.00000136,0.00000124,-0.00000161,0.00000568,0.00000148,0.00000029,0.
 00000125,0.00000058,0.00000151,-0.00000739,-0.00000367,-0.00000478,-0.
 00000397,-0.00000694,-0.00000137,-0.00000070,0.,0.00000632,0.00000819,
 0.00000786,-0.00002116,-0.00000580,0.00000297,0.00001789,0.00000370,-0
 .00000126,-0.00000211,0.00000203,0.00000785,0.00000063,-0.00000074,0.0
 0000020,0.00000078,0.00000138,0.00000192,-0.00000046,0.00000021,-0.000
 00073,0.00000120,-0.00000190,0.00000054,0.00000025,-0.00000183,0.00000
 111,-0.00000003,0.00000056,0.00000140,0.00000073,-0.00000108,0.0000009
 9,-0.00000110,-0.00000160,-0.00000320,-0.00000112,-0.00000298,-0.00000
 214,-0.00000179,-0.00000069,-0.00000242,0.00000315,0.00000190,-0.00000
 166,0.00000429,0.00000118,-0.00000077,-0.00000192,0.00000088,-0.000002
 64\\\@


 BLESSED ARE THOSE WHO NOUGHT EXPECT,
 FOR THEY SHALL NOT BE DISAPPOINTED..  WALCOT - ODE TO PITT
 Job cpu time:  0 days  0 hours 58 minutes 20.2 seconds.
 File lengths (MBytes):  RWF=    138 Int=      0 D2E=      0 Chk=      4 Scr=      1
 Normal termination of Gaussian 09 at Fri Feb 16 18:18:10 2018.
