 Entering Gaussian System, Link 0=g09
 Initial command:
 /home/fb_chem/chemsoft/lx24-amd64/Gaussian_09_C.01_NBO_3.1_64_istanbul-64/g09/l1.exe /local/2399984.1.parallel/Gau-30462.inp -scrdir=/local/2399984.1.parallel/
 Entering Link 1 = /home/fb_chem/chemsoft/lx24-amd64/Gaussian_09_C.01_NBO_3.1_64_istanbul-64/g09/l1.exe PID=     30463.
  
 Copyright (c) 1988,1990,1992,1993,1995,1998,2003,2009,2011,
            Gaussian, Inc.  All Rights Reserved.
  
 This is part of the Gaussian(R) 09 program.  It is based on
 the Gaussian(R) 03 system (copyright 2003, Gaussian, Inc.),
 the Gaussian(R) 98 system (copyright 1998, Gaussian, Inc.),
 the Gaussian(R) 94 system (copyright 1995, Gaussian, Inc.),
 the Gaussian 92(TM) system (copyright 1992, Gaussian, Inc.),
 the Gaussian 90(TM) system (copyright 1990, Gaussian, Inc.),
 the Gaussian 88(TM) system (copyright 1988, Gaussian, Inc.),
 the Gaussian 86(TM) system (copyright 1986, Carnegie Mellon
 University), and the Gaussian 82(TM) system (copyright 1983,
 Carnegie Mellon University). Gaussian is a federally registered
 trademark of Gaussian, Inc.
  
 This software contains proprietary and confidential information,
 including trade secrets, belonging to Gaussian, Inc.
  
 This software is provided under written license and may be
 used, copied, transmitted, or stored only in accord with that
 written license.
  
 The following legend is applicable only to US Government
 contracts under FAR:
  
                    RESTRICTED RIGHTS LEGEND
  
 Use, reproduction and disclosure by the US Government is
 subject to restrictions as set forth in subparagraphs (a)
 and (c) of the Commercial Computer Software - Restricted
 Rights clause in FAR 52.227-19.
  
 Gaussian, Inc.
 340 Quinnipiac St., Bldg. 40, Wallingford CT 06492
  
  
 ---------------------------------------------------------------
 Warning -- This program may not be used in any manner that
 competes with the business of Gaussian, Inc. or will provide
 assistance to any competitor of Gaussian, Inc.  The licensee
 of this program is prohibited from giving any competitor of
 Gaussian, Inc. access to this program.  By using this program,
 the user acknowledges that Gaussian, Inc. is engaged in the
 business of creating and licensing software in the field of
 computational chemistry and represents and warrants to the
 licensee that it is not a competitor of Gaussian, Inc. and that
 it will not use this program in any manner prohibited above.
 ---------------------------------------------------------------
  

 Cite this work as:
 Gaussian 09, Revision C.01,
 M. J. Frisch, G. W. Trucks, H. B. Schlegel, G. E. Scuseria, 
 M. A. Robb, J. R. Cheeseman, G. Scalmani, V. Barone, B. Mennucci, 
 G. A. Petersson, H. Nakatsuji, M. Caricato, X. Li, H. P. Hratchian, 
 A. F. Izmaylov, J. Bloino, G. Zheng, J. L. Sonnenberg, M. Hada, 
 M. Ehara, K. Toyota, R. Fukuda, J. Hasegawa, M. Ishida, T. Nakajima, 
 Y. Honda, O. Kitao, H. Nakai, T. Vreven, J. A. Montgomery, Jr., 
 J. E. Peralta, F. Ogliaro, M. Bearpark, J. J. Heyd, E. Brothers, 
 K. N. Kudin, V. N. Staroverov, T. Keith, R. Kobayashi, J. Normand, 
 K. Raghavachari, A. Rendell, J. C. Burant, S. S. Iyengar, J. Tomasi, 
 M. Cossi, N. Rega, J. M. Millam, M. Klene, J. E. Knox, J. B. Cross, 
 V. Bakken, C. Adamo, J. Jaramillo, R. Gomperts, R. E. Stratmann, 
 O. Yazyev, A. J. Austin, R. Cammi, C. Pomelli, J. W. Ochterski, 
 R. L. Martin, K. Morokuma, V. G. Zakrzewski, G. A. Voth, 
 P. Salvador, J. J. Dannenberg, S. Dapprich, A. D. Daniels, 
 O. Farkas, J. B. Foresman, J. V. Ortiz, J. Cioslowski, 
 and D. J. Fox, Gaussian, Inc., Wallingford CT, 2010.
 
 ******************************************
 Gaussian 09:  AM64L-G09RevC.01 23-Sep-2011
                17-Feb-2018 
 ******************************************
 %nprocs=2
 Will use up to    2 processors via shared memory.
 %chk=frag8-conf1.chk
 ----------------------------------------------------------------------
 #HF/6-31G* Geom=AllCheck Guess=Read Pop=(MK,ReadRadii) Integral=(Grid=
 UltraFine) iop(6/33=2)
 ----------------------------------------------------------------------
 1/29=7,38=1/1;
 2/12=2,40=1/2;
 3/5=1,6=6,7=1,11=9,14=-4,16=1,25=1,30=1,75=-5,116=-2/1,2,3;
 4/5=1/1;
 5/5=2,38=6/2;
 6/7=2,8=2,9=2,10=2,15=8,20=101,28=1,33=2/1,2;
 99/5=1,9=1/99;
 Structure from the checkpoint file:  frag8-conf1.chk
 ----------------------------
 Optimization for frag8-conf1
 ----------------------------
 Charge =  0 Multiplicity = 1
 Redundant internal coordinates found in file.
 C,0,0.9294994199,-1.8425789489,-0.0614061902
 C,0,0.7057538268,-0.6393484717,0.6018545277
 C,0,1.9057158374,-2.7289103987,0.4029353619
 C,0,2.4212469609,-1.1969414962,2.1947546644
 C,0,1.4502059677,-0.2998305576,1.7434230133
 C,0,2.6599594036,-2.412085151,1.5345946336
 C,0,5.784193562,-2.2211052811,2.8588449027
 C,0,1.1973021179,1.0036474754,2.4660568121
 C,0,7.147719576,-1.6714641531,2.4640730019
 C,0,3.7340172854,-3.3539355482,2.047084178
 N,0,5.0936715769,-2.851034218,1.8589385976
 O,0,5.350531462,-2.1112796729,4.0007101243
 H,0,0.3435014482,-2.0941230675,-0.9418167287
 H,0,-0.0566638354,0.0455193543,0.236271344
 H,0,2.0757563855,-3.6706003092,-0.1152198739
 H,0,3.0069466591,-0.9589554643,3.0799368848
 H,0,0.1622291847,1.0679464126,2.8243589243
 H,0,1.8573769321,1.1144041203,3.3317091555
 H,0,1.3618154049,1.8651731428,1.8066461716
 H,0,7.135288539,-0.5820926236,2.5733329018
 H,0,7.8961997273,-2.060159378,3.1605579683
 H,0,7.4477589866,-1.9221018979,1.441645199
 H,0,3.6258839232,-3.5132810063,3.1228799992
 H,0,3.6511312824,-4.3266248333,1.5488827239
 H,0,5.4413891302,-2.7790231069,0.9129819565
 Recover connectivity data from disk.
                          Input orientation:                          
 ---------------------------------------------------------------------
 Center     Atomic      Atomic             Coordinates (Angstroms)
 Number     Number       Type             X           Y           Z
 ---------------------------------------------------------------------
      1          6           0        0.929499   -1.842579   -0.061406
      2          6           0        0.705754   -0.639348    0.601855
      3          6           0        1.905716   -2.728910    0.402935
      4          6           0        2.421247   -1.196941    2.194755
      5          6           0        1.450206   -0.299831    1.743423
      6          6           0        2.659959   -2.412085    1.534595
      7          6           0        5.784194   -2.221105    2.858845
      8          6           0        1.197302    1.003647    2.466057
      9          6           0        7.147720   -1.671464    2.464073
     10          6           0        3.734017   -3.353936    2.047084
     11          7           0        5.093672   -2.851034    1.858939
     12          8           0        5.350531   -2.111280    4.000710
     13          1           0        0.343501   -2.094123   -0.941817
     14          1           0       -0.056664    0.045519    0.236271
     15          1           0        2.075756   -3.670600   -0.115220
     16          1           0        3.006947   -0.958955    3.079937
     17          1           0        0.162229    1.067946    2.824359
     18          1           0        1.857377    1.114404    3.331709
     19          1           0        1.361815    1.865173    1.806646
     20          1           0        7.135289   -0.582093    2.573333
     21          1           0        7.896200   -2.060159    3.160558
     22          1           0        7.447759   -1.922102    1.441645
     23          1           0        3.625884   -3.513281    3.122880
     24          1           0        3.651131   -4.326625    1.548883
     25          1           0        5.441389   -2.779023    0.912982
 ---------------------------------------------------------------------
                    Distance matrix (angstroms):
                    1          2          3          4          5
     1  C    0.000000
     2  C    1.392027   0.000000
     3  C    1.397925   2.417798   0.000000
     4  C    2.780723   2.406482   2.413155   0.000000
     5  C    2.430765   1.404514   2.811552   1.396936   0.000000
     6  C    2.421993   2.798485   1.396393   1.403342   2.443099
     7  C    5.677958   5.778106   4.618652   3.577616   4.870206
     8  C    3.815861   2.533043   4.323229   2.532635   1.511693
     9  C    6.713687   6.784692   5.731063   4.757862   5.904437
    10  C    3.820373   4.316023   2.537039   2.529386   3.825645
    11  N    4.695214   5.072045   3.506839   3.160799   4.449362
    12  O    6.009868   5.940771   5.019184   3.560646   4.856875
    13  H    1.087102   2.151864   2.156809   3.867821   3.413912
    14  H    2.150824   1.088106   3.402377   3.394025   2.159034
    15  H    2.158347   3.402880   1.088200   3.402107   3.899738
    16  H    3.868412   3.396841   3.392902   1.087763   2.155031
    17  H    4.169832   2.854786   4.828992   3.260258   2.167515
    18  H    4.595426   3.442962   4.832300   2.636842   2.165295
    19  H    4.174200   2.855620   4.834443   3.263368   2.167729
    20  H    6.858753   6.725245   6.055401   4.769020   5.752268
    21  H    7.678757   7.763258   6.628545   5.626102   6.830656
    22  H    6.689783   6.914140   5.695972   5.134088   6.220408
    23  H    4.494598   4.810636   3.312448   2.770920   4.118585
    24  H    4.021293   4.813327   2.629137   3.424133   4.593146
    25  H    4.709937   5.205886   3.572624   3.642414   4.771328
                    6          7          8          9         10
     6  C    0.000000
     7  C    3.398669   0.000000
     8  C    3.830694   5.620755   0.000000
     9  C    4.642461   1.522220   6.524086   0.000000
    10  C    1.517672   2.479008   5.059545   3.828571   0.000000
    11  N    2.494159   1.368738   5.514423   2.444726   1.461837
    12  O    3.662156   1.226369   5.413617   2.405115   2.823821
    13  H    3.405832   6.637943   4.683883   7.620768   4.692148
    14  H    3.886580   6.791988   2.731736   7.733969   5.404128
    15  H    2.155700   4.969769   5.411401   6.031095   2.743294
    16  H    2.149435   3.058595   2.739247   4.246523   2.707646
    17  H    4.473563   6.513489   1.097220   7.512074   5.737148
    18  H    4.038550   5.173888   1.094221   6.041654   5.013791
    19  H    4.478184   6.112464   1.097321   6.812980   5.737965
    20  H    4.945343   2.143207   6.147012   1.094908   4.419129
    21  H    5.494162   2.139510   7.398951   1.093800   4.498605
    22  H    4.813704   2.205744   6.976936   1.094624   4.025988
    23  H    2.160623   2.529374   5.170306   4.028603   1.092895
    24  H    2.155942   3.270958   5.939216   4.484817   1.095992
    25  H    2.873569   2.053088   5.893464   2.558150   2.128810
                   11         12         13         14         15
    11  N    0.000000
    12  O    2.280438   0.000000
    13  H    5.566081   7.035568   0.000000
    14  H    6.127726   6.932571   2.475095   0.000000
    15  H    3.698216   5.486029   2.483798   4.298873   0.000000
    16  H    3.070052   2.769127   4.955507   4.298966   4.292920
    17  H    6.372564   6.197561   4.920937   2.791320   5.895467
    18  H    5.326102   4.801534   5.554232   3.793126   5.901294
    19  H    6.014324   6.044497   4.926159   2.790932   5.903225
    20  H    3.134750   2.749759   7.795568   7.588144   6.508922
    21  H    3.189649   2.681212   8.594992   8.731173   6.870357
    22  H    2.564913   3.314056   7.495396   7.851167   5.859990
    23  H    2.047076   2.389687   5.413853   5.878667   3.593457
    24  H    2.086726   3.715800   4.704048   5.881015   2.383571
    25  H    1.010409   3.160412   5.467890   6.218084   3.630371
                   16         17         18         19         20
    16  H    0.000000
    17  H    3.502295   0.000000
    18  H    2.384055   1.770053   0.000000
    19  H    3.507624   1.763609   1.770608   0.000000
    20  H    4.176348   7.170021   5.595497   6.317429   0.000000
    21  H    5.012379   8.349394   6.824553   7.742060   1.763094
    22  H    4.830369   7.995701   6.636647   7.177422   1.781567
    23  H    2.628594   5.750971   4.958497   5.982161   4.605409
    24  H    3.755036   6.549861   6.000068   6.606495   5.216356
    25  H    3.732941   6.806032   5.818433   6.245808   3.233043
                   21         22         23         24         25
    21  H    0.000000
    22  H    1.781802   0.000000
    23  H    4.510940   4.468236   0.000000
    24  H    5.074935   4.495288   1.771901   0.000000
    25  H    3.405064   2.244843   2.952769   2.450401   0.000000
 Stoichiometry    C10H13NO
 Framework group  C1[X(C10H13NO)]
 Deg. of freedom    69
 Full point group                 C1      NOp   1
 Largest Abelian subgroup         C1      NOp   1
 Largest concise Abelian subgroup C1      NOp   1
                         Standard orientation:                         
 ---------------------------------------------------------------------
 Center     Atomic      Atomic             Coordinates (Angstroms)
 Number     Number       Type             X           Y           Z
 ---------------------------------------------------------------------
      1          6           0        2.697350   -1.393834    0.427845
      2          6           0        3.037608   -0.044075    0.417144
      3          6           0        1.416620   -1.797818    0.039613
      4          6           0        0.831453    0.507132   -0.370390
      5          6           0        2.106536    0.927663    0.015287
      6          6           0        0.473270   -0.849702   -0.361736
      7          6           0       -2.717778    0.260715    0.005873
      8          6           0        2.483431    2.391494   -0.003803
      9          6           0       -3.679190    0.582036    1.141476
     10          6           0       -0.926875   -1.265823   -0.773762
     11          7           0       -1.961557   -0.866973    0.178771
     12          8           0       -2.643880    0.965042   -0.995348
     13          1           0        3.429108   -2.135567    0.737930
     14          1           0        4.036668    0.263725    0.718994
     15          1           0        1.154640   -2.853997    0.045177
     16          1           0        0.094656    1.240360   -0.690914
     17          1           0        3.331688    2.577308   -0.674493
     18          1           0        1.649025    3.013853   -0.341081
     19          1           0        2.780923    2.741101    0.992885
     20          1           0       -3.392781    1.540230    1.587186
     21          1           0       -4.683417    0.703566    0.725354
     22          1           0       -3.708344   -0.179967    1.926780
     23          1           0       -1.204638   -0.798805   -1.722004
     24          1           0       -0.974027   -2.353129   -0.903147
     25          1           0       -1.966102   -1.316936    1.083447
 ---------------------------------------------------------------------
 Rotational constants (GHZ):      1.6182550      0.5296011      0.4418213
 Standard basis: 6-31G(d) (6D, 7F)
 There are   206 symmetry adapted basis functions of A   symmetry.
 Integral buffers will be    131072 words long.
 Raffenetti 1 integral format.
 Two-electron integral symmetry is turned on.
   206 basis functions,   388 primitive gaussians,   206 cartesian basis functions
    44 alpha electrons       44 beta electrons
       nuclear repulsion energy       662.0406794225 Hartrees.
 NAtoms=   25 NActive=   25 NUniq=   25 SFac= 1.00D+00 NAtFMM=   60 NAOKFM=F Big=F
 One-electron integrals computed using PRISM.
 NBasis=   206 RedAO= T  NBF=   206
 NBsUse=   206 1.00D-06 NBFU=   206
 Initial guess read from the checkpoint file:  frag8-conf1.chk
 B after Tr=     0.000000    0.000000    0.000000
         Rot=    1.000000    0.000000    0.000000    0.000000 Ang=   0.00 deg.
 Initial guess orbital symmetries:
       Occupied  (A) (A) (A) (A) (A) (A) (A) (A) (A) (A) (A) (A)
                 (A) (A) (A) (A) (A) (A) (A) (A) (A) (A) (A) (A)
                 (A) (A) (A) (A) (A) (A) (A) (A) (A) (A) (A) (A)
                 (A) (A) (A) (A) (A) (A) (A) (A)
       Virtual   (A) (A) (A) (A) (A) (A) (A) (A) (A) (A) (A) (A)
                 (A) (A) (A) (A) (A) (A) (A) (A) (A) (A) (A) (A)
                 (A) (A) (A) (A) (A) (A) (A) (A) (A) (A) (A) (A)
                 (A) (A) (A) (A) (A) (A) (A) (A) (A) (A) (A) (A)
                 (A) (A) (A) (A) (A) (A) (A) (A) (A) (A) (A) (A)
                 (A) (A) (A) (A) (A) (A) (A) (A) (A) (A) (A) (A)
                 (A) (A) (A) (A) (A) (A) (A) (A) (A) (A) (A) (A)
                 (A) (A) (A) (A) (A) (A) (A) (A) (A) (A) (A) (A)
                 (A) (A) (A) (A) (A) (A) (A) (A) (A) (A) (A) (A)
                 (A) (A) (A) (A) (A) (A) (A) (A) (A) (A) (A) (A)
                 (A) (A) (A) (A) (A) (A) (A) (A) (A) (A) (A) (A)
                 (A) (A) (A) (A) (A) (A) (A) (A) (A) (A) (A) (A)
                 (A) (A) (A) (A) (A) (A) (A) (A) (A) (A) (A) (A)
                 (A) (A) (A) (A) (A) (A)
 Requested convergence on RMS density matrix=1.00D-08 within 128 cycles.
 Requested convergence on MAX density matrix=1.00D-06.
 Requested convergence on             energy=1.00D-06.
 No special actions if energy rises.
 SCF Done:  E(RHF) =  -515.588214984     A.U. after   14 cycles
             Convg  =    0.3967D-08             -V/T =  2.0023

 **********************************************************************

            Population analysis using the SCF density.

 **********************************************************************

 Orbital symmetries:
 BldTbl:  Degeneracy threshold= 1.00D-02
       Occupied  (A) (A) (A) (A) (A) (A) (A) (A) (A) (A) (A) (A)
                 (A) (A) (A) (A) (A) (A) (A) (A) (A) (A) (A) (A)
                 (A) (A) (A) (A) (A) (A) (A) (A) (A) (A) (A) (A)
                 (A) (A) (A) (A) (A) (A) (A) (A)
       Virtual   (A) (A) (A) (A) (A) (A) (A) (A) (A) (A) (A) (A)
                 (A) (A) (A) (A) (A) (A) (A) (A) (A) (A) (A) (A)
                 (A) (A) (A) (A) (A) (A) (A) (A) (A) (A) (A) (A)
                 (A) (A) (A) (A) (A) (A) (A) (A) (A) (A) (A) (A)
                 (A) (A) (A) (A) (A) (A) (A) (A) (A) (A) (A) (A)
                 (A) (A) (A) (A) (A) (A) (A) (A) (A) (A) (A) (A)
                 (A) (A) (A) (A) (A) (A) (A) (A) (A) (A) (A) (A)
                 (A) (A) (A) (A) (A) (A) (A) (A) (A) (A) (A) (A)
                 (A) (A) (A) (A) (A) (A) (A) (A) (A) (A) (A) (A)
                 (A) (A) (A) (A) (A) (A) (A) (A) (A) (A) (A) (A)
                 (A) (A) (A) (A) (A) (A) (A) (A) (A) (A) (A) (A)
                 (A) (A) (A) (A) (A) (A) (A) (A) (A) (A) (A) (A)
                 (A) (A) (A) (A) (A) (A) (A) (A) (A) (A) (A) (A)
                 (A) (A) (A) (A) (A) (A)
 The electronic state is 1-A.
 Alpha  occ. eigenvalues --  -20.51957 -15.58914 -11.35383 -11.26774 -11.24030
 Alpha  occ. eigenvalues --  -11.23889 -11.23818 -11.23441 -11.23087 -11.22877
 Alpha  occ. eigenvalues --  -11.22419 -11.22284  -1.37109  -1.22701  -1.14781
 Alpha  occ. eigenvalues --   -1.05137  -1.02649  -0.99803  -0.93160  -0.91752
 Alpha  occ. eigenvalues --   -0.81212  -0.79364  -0.77528  -0.69238  -0.67788
 Alpha  occ. eigenvalues --   -0.64829  -0.63670  -0.62302  -0.60768  -0.57781
 Alpha  occ. eigenvalues --   -0.57457  -0.57036  -0.56164  -0.55523  -0.54768
 Alpha  occ. eigenvalues --   -0.52460  -0.51114  -0.48437  -0.47821  -0.47695
 Alpha  occ. eigenvalues --   -0.41715  -0.38729  -0.32400  -0.31880
 Alpha virt. eigenvalues --    0.13724   0.14812   0.19775   0.21825   0.24423
 Alpha virt. eigenvalues --    0.26168   0.27097   0.28627   0.29558   0.30620
 Alpha virt. eigenvalues --    0.31389   0.32009   0.32764   0.33657   0.34813
 Alpha virt. eigenvalues --    0.35515   0.37765   0.39886   0.41673   0.42790
 Alpha virt. eigenvalues --    0.44350   0.48290   0.50541   0.51452   0.53863
 Alpha virt. eigenvalues --    0.57558   0.61169   0.62162   0.71217   0.73044
 Alpha virt. eigenvalues --    0.73548   0.75067   0.75301   0.77408   0.77616
 Alpha virt. eigenvalues --    0.78138   0.79893   0.80807   0.81538   0.83316
 Alpha virt. eigenvalues --    0.84318   0.86011   0.86886   0.87274   0.89364
 Alpha virt. eigenvalues --    0.91432   0.93389   0.94668   0.95981   0.97444
 Alpha virt. eigenvalues --    0.98483   1.00517   1.02262   1.03756   1.07468
 Alpha virt. eigenvalues --    1.08359   1.09938   1.11306   1.12024   1.13878
 Alpha virt. eigenvalues --    1.14336   1.15593   1.16450   1.17726   1.18369
 Alpha virt. eigenvalues --    1.18899   1.19583   1.20538   1.21518   1.22502
 Alpha virt. eigenvalues --    1.23463   1.24869   1.30094   1.32547   1.36249
 Alpha virt. eigenvalues --    1.38873   1.39108   1.41817   1.42572   1.47353
 Alpha virt. eigenvalues --    1.49909   1.51290   1.53908   1.58812   1.60942
 Alpha virt. eigenvalues --    1.62527   1.65118   1.66965   1.71562   1.73488
 Alpha virt. eigenvalues --    1.74449   1.76084   1.77989   1.78706   1.82060
 Alpha virt. eigenvalues --    1.87916   1.94677   2.03592   2.04159   2.08800
 Alpha virt. eigenvalues --    2.11639   2.12346   2.13319   2.14006   2.17839
 Alpha virt. eigenvalues --    2.18841   2.19522   2.20604   2.21837   2.23691
 Alpha virt. eigenvalues --    2.26689   2.28306   2.30411   2.37239   2.39422
 Alpha virt. eigenvalues --    2.39676   2.41873   2.47106   2.47995   2.50555
 Alpha virt. eigenvalues --    2.51068   2.54403   2.54810   2.60661   2.62890
 Alpha virt. eigenvalues --    2.64637   2.65596   2.66582   2.68109   2.71019
 Alpha virt. eigenvalues --    2.72424   2.74230   2.76932   2.80361   2.91419
 Alpha virt. eigenvalues --    2.94864   2.95936   2.99708   3.03436   3.05506
 Alpha virt. eigenvalues --    3.13156   3.13851   3.17124   3.17708   3.24045
 Alpha virt. eigenvalues --    3.27446   3.36340   3.46390   3.50508   3.79201
 Alpha virt. eigenvalues --    4.37620   4.47891   4.52519   4.54784   4.57320
 Alpha virt. eigenvalues --    4.61179   4.67545   4.74674   4.80477   4.87424
 Alpha virt. eigenvalues --    4.92933   5.15750
          Condensed to atoms (all electrons):
              1          2          3          4          5          6
     1  C    4.887765   0.555126   0.535033  -0.039914  -0.036053  -0.039703
     2  C    0.555126   4.935048  -0.047118  -0.037695   0.550797  -0.034367
     3  C    0.535033  -0.047118   4.940972  -0.043835  -0.032675   0.572169
     4  C   -0.039914  -0.037695  -0.043835   4.983698   0.566287   0.537478
     5  C   -0.036053   0.550797  -0.032675   0.566287   4.799378  -0.040529
     6  C   -0.039703  -0.034367   0.572169   0.537478  -0.040529   4.873440
     7  C   -0.000002   0.000001  -0.000069   0.001757   0.000073  -0.001907
     8  C    0.002377  -0.052774   0.000296  -0.037814   0.320009   0.003267
     9  C    0.000000   0.000000  -0.000006  -0.000004   0.000002  -0.000382
    10  C    0.002884   0.000310  -0.036961  -0.043125   0.001544   0.327999
    11  N   -0.000007  -0.000007  -0.001295   0.000636   0.000028  -0.073053
    12  O    0.000000   0.000001  -0.000026  -0.001725   0.000081  -0.002142
    13  H    0.380529  -0.028985  -0.029668   0.000284   0.001944   0.002065
    14  H   -0.029630   0.382519   0.002504   0.002635  -0.035400   0.000207
    15  H   -0.028654   0.002330   0.379048   0.002808   0.000235  -0.033353
    16  H    0.000064   0.002673   0.002405   0.369225  -0.026787  -0.028477
    17  H    0.000009  -0.002980   0.000015   0.000268  -0.037962  -0.000091
    18  H   -0.000038   0.002997  -0.000011  -0.000875  -0.043194   0.000283
    19  H    0.000001  -0.003115   0.000014   0.000326  -0.038248  -0.000060
    20  H    0.000000   0.000000   0.000000   0.000012   0.000000   0.000043
    21  H    0.000000   0.000000   0.000000   0.000001   0.000000  -0.000004
    22  H    0.000000   0.000000   0.000001  -0.000005   0.000000   0.000009
    23  H   -0.000057   0.000001   0.001412  -0.002706   0.000006  -0.038485
    24  H    0.000235  -0.000025  -0.000861   0.003229   0.000015  -0.059595
    25  H   -0.000002  -0.000007   0.000843   0.000395  -0.000010   0.001631
              7          8          9         10         11         12
     1  C   -0.000002   0.002377   0.000000   0.002884  -0.000007   0.000000
     2  C    0.000001  -0.052774   0.000000   0.000310  -0.000007   0.000001
     3  C   -0.000069   0.000296  -0.000006  -0.036961  -0.001295  -0.000026
     4  C    0.001757  -0.037814  -0.000004  -0.043125   0.000636  -0.001725
     5  C    0.000073   0.320009   0.000002   0.001544   0.000028   0.000081
     6  C   -0.001907   0.003267  -0.000382   0.327999  -0.073053  -0.002142
     7  C    4.156026  -0.000001   0.360192  -0.025261   0.282699   0.569555
     8  C   -0.000001   5.105099   0.000000  -0.000116   0.000004  -0.000003
     9  C    0.360192   0.000000   5.246430   0.004462  -0.102303  -0.068193
    10  C   -0.025261  -0.000116   0.004462   4.943457   0.189476   0.001910
    11  N    0.282699   0.000004  -0.102303   0.189476   7.348973  -0.094522
    12  O    0.569555  -0.000003  -0.068193   0.001910  -0.094522   8.205822
    13  H    0.000000  -0.000108   0.000000  -0.000105   0.000001   0.000000
    14  H    0.000000  -0.001468   0.000000   0.000006   0.000000   0.000000
    15  H    0.000000   0.000006   0.000000  -0.002685   0.000096   0.000000
    16  H    0.001502  -0.002505   0.000134  -0.000091  -0.002336   0.007814
    17  H    0.000000   0.389256   0.000000   0.000002   0.000000   0.000000
    18  H    0.000000   0.397627   0.000000  -0.000008   0.000001  -0.000003
    19  H    0.000000   0.388977   0.000000   0.000002   0.000000   0.000000
    20  H   -0.027474   0.000000   0.379580  -0.000103   0.001173   0.000398
    21  H   -0.027514   0.000000   0.380986  -0.000115   0.001899   0.001006
    22  H   -0.038837   0.000000   0.374221   0.000031   0.005465   0.002510
    23  H   -0.000798  -0.000001   0.000405   0.407459  -0.041992   0.008067
    24  H    0.002262   0.000001  -0.000038   0.416424  -0.042253   0.000377
    25  H   -0.015761   0.000000   0.000210  -0.022023   0.316732   0.002161
             13         14         15         16         17         18
     1  C    0.380529  -0.029630  -0.028654   0.000064   0.000009  -0.000038
     2  C   -0.028985   0.382519   0.002330   0.002673  -0.002980   0.002997
     3  C   -0.029668   0.002504   0.379048   0.002405   0.000015  -0.000011
     4  C    0.000284   0.002635   0.002808   0.369225   0.000268  -0.000875
     5  C    0.001944  -0.035400   0.000235  -0.026787  -0.037962  -0.043194
     6  C    0.002065   0.000207  -0.033353  -0.028477  -0.000091   0.000283
     7  C    0.000000   0.000000   0.000000   0.001502   0.000000   0.000000
     8  C   -0.000108  -0.001468   0.000006  -0.002505   0.389256   0.397627
     9  C    0.000000   0.000000   0.000000   0.000134   0.000000   0.000000
    10  C   -0.000105   0.000006  -0.002685  -0.000091   0.000002  -0.000008
    11  N    0.000001   0.000000   0.000096  -0.002336   0.000000   0.000001
    12  O    0.000000   0.000000   0.000000   0.007814   0.000000  -0.000003
    13  H    0.476734  -0.001482  -0.001294   0.000009   0.000000   0.000002
    14  H   -0.001482   0.482500  -0.000111  -0.000100   0.000853  -0.000017
    15  H   -0.001294  -0.000111   0.485523  -0.000109   0.000000   0.000000
    16  H    0.000009  -0.000100  -0.000109   0.436032   0.000036   0.002361
    17  H    0.000000   0.000853   0.000000   0.000036   0.529076  -0.024486
    18  H    0.000002  -0.000017   0.000000   0.002361  -0.024486   0.509380
    19  H    0.000000   0.000856   0.000000   0.000031  -0.030788  -0.024807
    20  H    0.000000   0.000000   0.000000  -0.000013   0.000000   0.000000
    21  H    0.000000   0.000000   0.000000   0.000000   0.000000   0.000000
    22  H    0.000000   0.000000   0.000000  -0.000008   0.000000   0.000000
    23  H    0.000002   0.000000   0.000024   0.000595   0.000000   0.000000
    24  H   -0.000004   0.000000   0.002783  -0.000060   0.000000   0.000000
    25  H    0.000000   0.000000   0.000037  -0.000039   0.000000   0.000000
             19         20         21         22         23         24
     1  C    0.000001   0.000000   0.000000   0.000000  -0.000057   0.000235
     2  C   -0.003115   0.000000   0.000000   0.000000   0.000001  -0.000025
     3  C    0.000014   0.000000   0.000000   0.000001   0.001412  -0.000861
     4  C    0.000326   0.000012   0.000001  -0.000005  -0.002706   0.003229
     5  C   -0.038248   0.000000   0.000000   0.000000   0.000006   0.000015
     6  C   -0.000060   0.000043  -0.000004   0.000009  -0.038485  -0.059595
     7  C    0.000000  -0.027474  -0.027514  -0.038837  -0.000798   0.002262
     8  C    0.388977   0.000000   0.000000   0.000000  -0.000001   0.000001
     9  C    0.000000   0.379580   0.380986   0.374221   0.000405  -0.000038
    10  C    0.000002  -0.000103  -0.000115   0.000031   0.407459   0.416424
    11  N    0.000000   0.001173   0.001899   0.005465  -0.041992  -0.042253
    12  O    0.000000   0.000398   0.001006   0.002510   0.008067   0.000377
    13  H    0.000000   0.000000   0.000000   0.000000   0.000002  -0.000004
    14  H    0.000856   0.000000   0.000000   0.000000   0.000000   0.000000
    15  H    0.000000   0.000000   0.000000   0.000000   0.000024   0.002783
    16  H    0.000031  -0.000013   0.000000  -0.000008   0.000595  -0.000060
    17  H   -0.030788   0.000000   0.000000   0.000000   0.000000   0.000000
    18  H   -0.024807   0.000000   0.000000   0.000000   0.000000   0.000000
    19  H    0.532825   0.000000   0.000000   0.000000   0.000000   0.000000
    20  H    0.000000   0.483580  -0.019723  -0.023148  -0.000008  -0.000002
    21  H    0.000000  -0.019723   0.476015  -0.022866   0.000002   0.000007
    22  H    0.000000  -0.023148  -0.022866   0.533933  -0.000024  -0.000023
    23  H    0.000000  -0.000008   0.000002  -0.000024   0.446250  -0.020481
    24  H    0.000000  -0.000002   0.000007  -0.000023  -0.020481   0.515212
    25  H    0.000000  -0.000073   0.000079   0.001164   0.002995  -0.001535
             25
     1  C   -0.000002
     2  C   -0.000007
     3  C    0.000843
     4  C    0.000395
     5  C   -0.000010
     6  C    0.001631
     7  C   -0.015761
     8  C    0.000000
     9  C    0.000210
    10  C   -0.022023
    11  N    0.316732
    12  O    0.002161
    13  H    0.000000
    14  H    0.000000
    15  H    0.000037
    16  H   -0.000039
    17  H    0.000000
    18  H    0.000000
    19  H    0.000000
    20  H   -0.000073
    21  H    0.000079
    22  H    0.001164
    23  H    0.002995
    24  H   -0.001535
    25  H    0.330820
 Mulliken atomic charges:
              1
     1  C   -0.189964
     2  C   -0.224729
     3  C   -0.242187
     4  C   -0.261342
     5  C    0.050458
     6  C    0.033559
     7  C    0.763557
     8  C   -0.512131
     9  C   -0.575696
    10  C   -0.165372
    11  N   -0.789414
    12  O   -0.633088
    13  H    0.200076
    14  H    0.196129
    15  H    0.193316
    16  H    0.237645
    17  H    0.176794
    18  H    0.180789
    19  H    0.173988
    20  H    0.205760
    21  H    0.210227
    22  H    0.167579
    23  H    0.237334
    24  H    0.184329
    25  H    0.382381
 Sum of Mulliken atomic charges =   0.00000
 Mulliken charges with hydrogens summed into heavy atoms:
              1
     1  C    0.010112
     2  C   -0.028600
     3  C   -0.048871
     4  C   -0.023696
     5  C    0.050458
     6  C    0.033559
     7  C    0.763557
     8  C    0.019440
     9  C    0.007869
    10  C    0.256291
    11  N   -0.407033
    12  O   -0.633088
 Sum of Mulliken charges with hydrogens summed into heavy atoms =   0.00000
 DipInt: DoE/N= T F RetVal/Mat= T F Init=T NMatP=  1 IDeriv=0 Min/MaxMlt=  0  4
 Entering OneElI...
 OneElI was handed    33442981 working-precision words.
 Multipole integrals L=0 to 4 MinM= 0 MaxM= 0.
 Requested accuracy = 0.1000D-12
 PrsmSu:  NPrtUS=   1 ThrOK=F IAlg=1 NPAlg=1 LenDen=           0.
 Prism:   IPart=     0 DynPar=F LinDyn=F Incr=          24.
 PRISM was handed    33231991 working-precision words and  2437 shell-pairs
 IPart=  0 NShTot=        2437 NBatch=          56 AvBLen=        43.5
 PrSmSu:  NxtVal=             25.
 Electronic moments (au):
        -88.00000000          0.19483835         -0.76038589          1.19004951
      -1829.46797665       -584.53930795       -191.51724504          4.04039788
         -5.28946524          1.21078802       1348.41385677       -325.95347295
        -43.84918551      -1170.09047820      -1139.80909174      -1032.63071074
        453.95504800        -51.51481609         44.00454824        145.83210161
     -64114.97246866     -10043.81509023      -1354.30974643       3085.08803143
       3066.76145674      -2813.84096113        -31.78743842        496.82079008
       -134.27167813     -10936.42599355      -5236.40632461      -1079.42297643
        159.59388359       -397.99734348        456.78384661
 Electronic spatial extent (au):  <R**2>=           2605.5245
 DipInt: DoE/N= F T RetVal/Mat= T F Init=T NMatP=  1 IDeriv=0 Min/MaxMlt=  0  4
 Nuclear    moments (au):
         88.00000000          0.00000000          0.00000000          0.00000000
       1778.87530130        534.03161608        136.17123569          0.00000000
          0.00000000          0.00000000      -1363.94620530        315.80005847
         44.87936753       1176.09265391       1131.95377722       1078.70555432
       -467.54184900         48.24480739        -36.79916239       -157.99531031
      57954.01654437       8022.83868302        688.89685642      -3065.57768256
      -3154.15708640       2798.18025715         19.11590684       -513.97592793
        132.07358883       9503.17809195       3986.44112858        617.95917797
       -135.79431388        381.08762141       -416.66947134
 Total      moments (au):
          0.00000000          0.19483835         -0.76038589          1.19004951
        -50.59267535        -50.50769187        -55.34600935          4.04039788
         -5.28946524          1.21078802        -15.53234853        -10.15341449
          1.03018201          6.00217572         -7.85531452         46.07484358
        -13.58680100         -3.27000871          7.20538585        -12.16320870
      -6160.95592429      -2020.97640722       -665.41289001         19.51034887
        -87.39562966        -15.66070398        -12.67153157        -17.15513784
         -2.19808930      -1433.24790160      -1249.96519603       -461.46379846
         23.79956971        -16.90972207         40.11437526
 Traceless Quadrup. (au):
          1.55611684          1.64110032         -3.19721716          4.04039788
         -5.28946524          1.21078802
 Charge=              0.0000 electrons
 Dipole moment (field-independent basis, Debye):
    X=              0.4952    Y=             -1.9327    Z=              3.0248  Tot=              3.6235
 Quadrupole moment (field-independent basis, Debye-Ang):
   XX=            -68.0489   YY=            -67.9346   ZZ=            -74.4423
   XY=              5.4345   XZ=             -7.1145   YZ=              1.6286
 Traceless Quadrupole moment (field-independent basis, Debye-Ang):
   XX=              2.0930   YY=              2.2073   ZZ=             -4.3004
   XY=              5.4345   XZ=             -7.1145   YZ=              1.6286
 Octapole moment (field-independent basis, Debye-Ang**2):
  XXX=            -11.0553  YYY=             -7.2268  ZZZ=              0.7332  XYY=              4.2721
  XXY=             -5.5911  XXZ=             32.7943  XZZ=             -9.6706  YZZ=             -2.3275
  YYZ=              5.1285  XYZ=             -8.6573
 Hexadecapole moment (field-independent basis, Debye-Ang**3):
 XXXX=          -2320.5113 YYYY=           -761.1966 ZZZZ=           -250.6264 XXXY=              7.3485
 XXXZ=            -32.9174 YYYX=             -5.8986 YYYZ=             -4.7727 ZZZX=             -6.4614
 ZZZY=             -0.8279 XXYY=           -539.8299 XXZZ=           -470.7968 YYZZ=           -173.8094
 XXYZ=              8.9641 YYXZ=             -6.3690 ZZXY=             15.1090
 N-N= 6.620406794225D+02 E-N=-2.527998882167D+03  KE= 5.144139237502D+02
 Entering OneElI...
 OneElI was handed    33357278 working-precision words.
 Calculate electrostatic properties
    NBasis =   206  MinDer = 0  MaxDer = 0
    NGrid  =    25  NMatD  =   1
 Requested accuracy = 0.1000D-12
 PrsmSu:  NPrtUS=   2 ThrOK=T IAlg=1 NPAlg=1 LenDen=           0.
 Prism:   IPart=     0 DynPar=F LinDyn=F Incr=         281.
 PRISM was handed    16546699 working-precision words and  2248 shell-pairs
 PRISM was handed    16546699 working-precision words and  2248 shell-pairs
 IPart=  0 NShTot=       28300 NBatch=        1132 AvBLen=        25.0
 IPart=  1 NShTot=       27900 NBatch=        1116 AvBLen=        25.0
 PrSmSu:  NxtVal=            563.
 --------------------------------------------------------
       Center         ----      EFG at Nuclei      ----
                      3XX-RR        3YY-RR        3ZZ-RR
 --------------------------------------------------------
     1   Atom        0.115527      0.172414     -0.287941
     2   Atom        0.070478      0.180675     -0.251153
     3   Atom        0.141867      0.100964     -0.242830
     4   Atom        0.108778      0.150737     -0.259515
     5   Atom        0.162533      0.135016     -0.297549
     6   Atom        0.088168      0.202585     -0.290753
     7   Atom       -0.151147     -0.054088      0.205235
     8   Atom        0.026842     -0.045230      0.018387
     9   Atom        0.002976      0.024765     -0.027742
    10   Atom       -0.092039      0.107050     -0.015011
    11   Atom        0.212094      0.069036     -0.281129
    12   Atom        0.535075      0.009386     -0.544462
    13   Atom       -0.059098     -0.066748      0.125846
    14   Atom       -0.233901      0.105182      0.128719
    15   Atom        0.116346     -0.280423      0.164076
    16   Atom       -0.055397     -0.066529      0.121926
    17   Atom       -0.115231      0.129490     -0.014259
    18   Atom       -0.112184     -0.000185      0.112369
    19   Atom        0.118907      0.098039     -0.216947
    20   Atom        0.116036     -0.188973      0.072938
    21   Atom       -0.229282      0.148127      0.081156
    22   Atom        0.146920     -0.069582     -0.077338
    23   Atom        0.111714      0.077314     -0.189028
    24   Atom        0.138142     -0.280801      0.142659
    25   Atom        0.197520      0.080798     -0.278318
 --------------------------------------------------------
                        XY            XZ            YZ
 --------------------------------------------------------
     1   Atom        0.049062      0.147662     -0.030745
     2   Atom       -0.004093      0.122285     -0.045952
     3   Atom       -0.006578      0.141873     -0.034607
     4   Atom        0.032589      0.138509     -0.032024
     5   Atom        0.000411      0.172827     -0.047463
     6   Atom       -0.012657      0.129708     -0.054694
     7   Atom       -0.276645     -0.300532     -0.226729
     8   Atom       -0.013930      0.003435      0.001064
     9   Atom        0.006915      0.050207     -0.002149
    10   Atom        0.045114      0.197587     -0.129304
    11   Atom        0.632681      0.399637      0.348574
    12   Atom       -0.988762     -0.587460      0.656236
    13   Atom        0.206693     -0.093177      0.089750
    14   Atom       -0.116801     -0.121511     -0.032976
    15   Atom       -0.106216     -0.007112      0.004481
    16   Atom        0.197693     -0.092377      0.089181
    17   Atom       -0.056686      0.210555      0.044946
    18   Atom        0.189158     -0.106930      0.077761
    19   Atom       -0.038429     -0.110041     -0.125484
    20   Atom       -0.103302     -0.042454     -0.160849
    21   Atom        0.045740     -0.152321      0.016223
    22   Atom        0.001223      0.012665      0.222168
    23   Atom        0.042535     -0.084660      0.154441
    24   Atom       -0.016711      0.004101     -0.050978
    25   Atom        0.035006      0.023955      0.239473
 --------------------------------------------------------


 ---------------------------------------------------------------------------------
              Nuclear Quadrupole in Principal Axis System
 ---------------------------------------------------------------------------------

       Atom             a.u.   MegaHertz   Gauss  10(-4) cm-1        Axes

              Baa    -0.3401   -45.636   -16.284   -15.223 -0.3156  0.0869  0.9449
     1 C(13)  Bbb     0.1326    17.791     6.348     5.934  0.7069 -0.6428  0.2952
              Bcc     0.2075    27.845     9.936     9.288  0.6330  0.7611  0.1414
 
              Baa    -0.2961   -39.736   -14.179   -13.254 -0.3143  0.0884  0.9452
     2 C(13)  Bbb     0.1073    14.395     5.136     4.801  0.9294  0.2317  0.2874
              Bcc     0.1888    25.341     9.042     8.453 -0.1936  0.9688 -0.1550
 
              Baa    -0.2919   -39.172   -13.978   -13.066 -0.3088  0.0783  0.9479
     3 C(13)  Bbb     0.1001    13.434     4.793     4.481  0.2036  0.9789 -0.0145
              Bcc     0.1918    25.738     9.184     8.585  0.9291 -0.1885  0.3183
 
              Baa    -0.3094   -41.518   -14.815   -13.849 -0.3194  0.0883  0.9435
     4 C(13)  Bbb     0.1340    17.984     6.417     5.999 -0.6439  0.7102 -0.2844
              Bcc     0.1754    23.535     8.398     7.850  0.6952  0.6984  0.1700
 
              Baa    -0.3594   -48.223   -17.207   -16.086 -0.3131  0.0910  0.9453
     5 C(13)  Bbb     0.1366    18.330     6.541     6.114  0.1914  0.9810 -0.0311
              Bcc     0.2228    29.893    10.667     9.971  0.9302 -0.1712  0.3246
 
              Baa    -0.3353   -44.992   -16.054   -15.008 -0.2892  0.0901  0.9530
     6 C(13)  Bbb     0.1193    16.008     5.712     5.340  0.9192  0.3040  0.2502
              Bcc     0.2160    28.985    10.342     9.668 -0.2672  0.9484 -0.1707
 
              Baa    -0.5667   -76.047   -27.135   -25.366  0.6958  0.5692  0.4381
     7 C(13)  Bbb     0.1769    23.735     8.469     7.917 -0.6050  0.7932 -0.0698
              Bcc     0.3898    52.312    18.666    17.449 -0.3872 -0.2164  0.8962
 
              Baa    -0.0479    -6.424    -2.292    -2.143  0.1844  0.9825 -0.0253
     8 C(13)  Bbb     0.0176     2.359     0.842     0.787 -0.2500  0.0718  0.9656
              Bcc     0.0303     4.065     1.451     1.356  0.9505 -0.1717  0.2589
 
              Baa    -0.0653    -8.758    -3.125    -2.921 -0.5956  0.0649  0.8006
     9 C(13)  Bbb     0.0240     3.222     1.150     1.075 -0.1684  0.9645 -0.2034
              Bcc     0.0413     5.536     1.975     1.847  0.7854  0.2559  0.5636
 
              Baa    -0.2903   -38.960   -13.902   -12.996  0.7078 -0.2900 -0.6441
    10 C(13)  Bbb     0.0769    10.326     3.685     3.444  0.6236  0.6848  0.3770
              Bcc     0.2134    28.634    10.217     9.551 -0.3318  0.6685 -0.6655
 
              Baa    -0.5049   -19.474    -6.949    -6.496 -0.6054  0.1993  0.7706
    11 N(14)  Bbb    -0.4923   -18.987    -6.775    -6.333 -0.3969  0.7636 -0.5093
              Bcc     0.9972    38.461    13.724    12.829  0.6899  0.6142  0.3831
 
              Baa    -0.9853    71.293    25.439    23.781 -0.0948 -0.6122  0.7850
    12 O(17)  Bbb    -0.6549    47.386    16.909    15.806  0.6865  0.5309  0.4969
              Bcc     1.6401  -118.679   -42.348   -39.587  0.7210 -0.5860 -0.3699
 
              Baa    -0.3082  -164.433   -58.674   -54.849 -0.6730  0.6823 -0.2856
    13 H(1)   Bbb     0.1432    76.425    27.271    25.493  0.6703  0.7258  0.1546
              Bcc     0.1649    88.008    31.403    29.356 -0.3127  0.0874  0.9458
 
              Baa    -0.3066  -163.592   -58.374   -54.569  0.9181  0.2827  0.2777
    14 H(1)   Bbb     0.1407    75.081    26.791    25.044 -0.2423  0.9550 -0.1710
              Bcc     0.1659    88.511    31.583    29.524 -0.3135  0.0897  0.9453
 
              Baa    -0.3071  -163.844   -58.464   -54.653  0.2432  0.9700 -0.0056
    15 H(1)   Bbb     0.1403    74.862    26.712    24.971  0.9199 -0.2288  0.3184
              Bcc     0.1668    88.983    31.751    29.681 -0.3076  0.0825  0.9479
 
              Baa    -0.2980  -158.979   -56.728   -53.030 -0.6686  0.6838 -0.2923
    16 H(1)   Bbb     0.1362    72.673    25.931    24.241  0.6752  0.7229  0.1465
              Bcc     0.1618    86.306    30.796    28.789 -0.3115  0.0994  0.9450
 
              Baa    -0.2936  -156.671   -55.904   -52.260  0.7740  0.1685 -0.6104
    17 H(1)   Bbb     0.1419    75.687    27.007    25.246 -0.1441  0.9855  0.0893
              Bcc     0.1518    80.984    28.897    27.013  0.6166  0.0188  0.7870
 
              Baa    -0.2962  -158.056   -56.398   -52.722  0.7630 -0.5684  0.3078
    18 H(1)   Bbb     0.1409    75.183    26.827    25.078  0.5662  0.8174  0.1060
              Bcc     0.1553    82.873    29.571    27.644 -0.3119  0.0935  0.9455
 
              Baa    -0.2937  -156.730   -55.925   -52.279  0.2718  0.3176  0.9084
    19 H(1)   Bbb     0.1419    75.720    27.019    25.258 -0.0043  0.9444 -0.3289
              Bcc     0.1518    81.010    28.906    27.022  0.9623 -0.0854 -0.2581
 
              Baa    -0.2957  -157.746   -56.288   -52.618  0.2615  0.8732  0.4112
    20 H(1)   Bbb     0.1418    75.667    27.000    25.240  0.7664  0.0711 -0.6385
              Bcc     0.1538    82.079    29.288    27.379  0.5868 -0.4821  0.6506
 
              Baa    -0.2968  -158.368   -56.510   -52.826  0.9204 -0.1083  0.3756
    21 H(1)   Bbb     0.1429    76.254    27.209    25.436 -0.3480  0.2105  0.9136
              Bcc     0.1539    82.114    29.300    27.390  0.1780  0.9716 -0.1561
 
              Baa    -0.2958  -157.832   -56.318   -52.647 -0.0185 -0.7005  0.7134
    22 H(1)   Bbb     0.1381    73.696    26.297    24.582  0.7366 -0.4921 -0.4641
              Bcc     0.1577    84.136    30.022    28.065  0.6761  0.5169  0.5250
 
              Baa    -0.2825  -150.743   -53.789   -50.282  0.2335 -0.4067  0.8832
    23 H(1)   Bbb     0.1337    71.331    25.453    23.793  0.9474 -0.1091 -0.3008
              Bcc     0.1488    79.412    28.336    26.489  0.2187  0.9070  0.3598
 
              Baa    -0.2875  -153.376   -54.728   -51.161  0.0378  0.9924  0.1173
    24 H(1)   Bbb     0.1359    72.512    25.874    24.187  0.9038  0.0161 -0.4276
              Bcc     0.1516    80.864    28.854    26.973  0.4262 -0.1222  0.8963
 
              Baa    -0.3981  -212.423   -75.798   -70.857 -0.0097 -0.4466  0.8947
    25 H(1)   Bbb     0.1570    83.776    29.894    27.945  0.7195 -0.6245 -0.3039
              Bcc     0.2411   128.646    45.904    42.912  0.6944  0.6407  0.3274
 

 ---------------------------------------------------------------------------------

 No NMR shielding tensors so no spin-rotation constants.
 Leave Link  601 at Sat Feb 17 20:56:31 2018, MaxMem=   33554432 cpu:       0.5
 Merz-Kollman atomic radii used.
 Read replacement radii for each type of atom:
 Atom Element Radius
    1     6    1.50
    2     6    1.50
    3     6    1.50
    4     6    1.50
    5     6    1.50
    6     6    1.50
    7     6    1.50
    8     6    1.50
    9     6    1.50
   10     6    1.50
   11     7    1.50
   12     8    1.40
   13     1    1.20
   14     1    1.20
   15     1    1.20
   16     1    1.20
   17     1    1.20
   18     1    1.20
   19     1    1.20
   20     1    1.20
   21     1    1.20
   22     1    1.20
   23     1    1.20
   24     1    1.20
   25     1    1.20
 Generate VDW surfaces: Layer= 4 Dens= 1 Start= 1.400 Inc= 0.200

 **********************************************************************

            Electrostatic Properties Using The SCF Density

 **********************************************************************

       Atomic Center    1 is at   2.697350 -1.393834  0.427845
       Atomic Center    2 is at   3.037608 -0.044075  0.417144
       Atomic Center    3 is at   1.416620 -1.797818  0.039613
       Atomic Center    4 is at   0.831453  0.507132 -0.370390
       Atomic Center    5 is at   2.106536  0.927663  0.015287
       Atomic Center    6 is at   0.473270 -0.849702 -0.361736
       Atomic Center    7 is at  -2.717778  0.260715  0.005873
       Atomic Center    8 is at   2.483431  2.391494 -0.003803
       Atomic Center    9 is at  -3.679190  0.582036  1.141476
       Atomic Center   10 is at  -0.926875 -1.265823 -0.773762
       Atomic Center   11 is at  -1.961557 -0.866973  0.178771
       Atomic Center   12 is at  -2.643880  0.965042 -0.995348
       Atomic Center   13 is at   3.429108 -2.135567  0.737930
       Atomic Center   14 is at   4.036668  0.263725  0.718994
       Atomic Center   15 is at   1.154640 -2.853997  0.045177
       Atomic Center   16 is at   0.094656  1.240360 -0.690914
       Atomic Center   17 is at   3.331688  2.577308 -0.674493
       Atomic Center   18 is at   1.649025  3.013853 -0.341081
       Atomic Center   19 is at   2.780923  2.741101  0.992885
       Atomic Center   20 is at  -3.392781  1.540230  1.587186
       Atomic Center   21 is at  -4.683417  0.703566  0.725354
       Atomic Center   22 is at  -3.708344 -0.179967  1.926780
       Atomic Center   23 is at  -1.204638 -0.798805 -1.722004
       Atomic Center   24 is at  -0.974027 -2.353129 -0.903147
       Atomic Center   25 is at  -1.966102 -1.316936  1.083447
      ESP Fit Center   26 is at   2.697350 -1.393834  2.527845
      ESP Fit Center   27 is at   3.747350 -1.393834  2.246498
      ESP Fit Center   28 is at   1.647350 -1.393834  2.246498
      ESP Fit Center   29 is at   2.172350 -2.303161  2.246498
      ESP Fit Center   30 is at   4.516003 -1.393834 -0.622155
      ESP Fit Center   31 is at   3.747350 -1.393834 -1.390809
      ESP Fit Center   32 is at   3.222350 -2.303161 -1.390809
      ESP Fit Center   33 is at   2.697350 -1.393834 -1.672155
      ESP Fit Center   34 is at   3.037608 -0.044075  2.517144
      ESP Fit Center   35 is at   3.562608  0.865252  2.235797
      ESP Fit Center   36 is at   2.512608  0.865252  2.235797
      ESP Fit Center   37 is at   1.987608 -0.044075  2.235797
      ESP Fit Center   38 is at   4.567557 -1.027313 -0.632856
      ESP Fit Center   39 is at   4.087608 -0.044075 -1.401510
      ESP Fit Center   40 is at   3.037608 -0.044075 -1.682856
      ESP Fit Center   41 is at   1.416620 -1.797818  2.139613
      ESP Fit Center   42 is at   0.891620 -0.888491  1.858267
      ESP Fit Center   43 is at   0.366620 -1.797818  1.858267
      ESP Fit Center   44 is at   0.891620 -2.707145  1.858267
      ESP Fit Center   45 is at  -0.328365 -2.310192  1.089613
      ESP Fit Center   46 is at   2.466620 -1.797818 -1.779040
      ESP Fit Center   47 is at   0.891620 -2.707145 -1.779040
      ESP Fit Center   48 is at   1.941620 -2.707145 -1.779040
      ESP Fit Center   49 is at   1.416620 -1.797818 -2.060387
      ESP Fit Center   50 is at   0.831453  0.507132  1.729610
      ESP Fit Center   51 is at   0.306453  1.416458  1.448263
      ESP Fit Center   52 is at  -0.218547  0.507132  1.448263
      ESP Fit Center   53 is at   1.881453  0.507132 -2.189043
      ESP Fit Center   54 is at   1.356453  1.416458 -2.189043
      ESP Fit Center   55 is at  -0.218547  0.507132 -2.189043
      ESP Fit Center   56 is at   0.831453  0.507132 -2.470390
      ESP Fit Center   57 is at   2.106536  0.927663  2.115287
      ESP Fit Center   58 is at   1.581536  1.836990  1.833940
      ESP Fit Center   59 is at   1.056536  0.927663  1.833940
      ESP Fit Center   60 is at   3.156536  0.927663 -1.803366
      ESP Fit Center   61 is at   2.631536  0.018337 -1.803366
      ESP Fit Center   62 is at   2.106536  0.927663 -2.084713
      ESP Fit Center   63 is at   0.473270 -0.849702  1.738264
      ESP Fit Center   64 is at   1.523270 -0.849702 -2.180389
      ESP Fit Center   65 is at   0.998270 -1.759029 -2.180389
      ESP Fit Center   66 is at   0.473270 -0.849702 -2.461736
      ESP Fit Center   67 is at  -1.187830  1.243954  1.055873
      ESP Fit Center   68 is at  -4.289651 -1.131842  0.005873
      ESP Fit Center   69 is at  -4.462763 -0.251659 -1.044127
      ESP Fit Center   70 is at  -3.908743 -1.113731 -1.044127
      ESP Fit Center   71 is at   3.676367  4.119760 -0.003803
      ESP Fit Center   72 is at   2.736558  4.476183 -0.003803
      ESP Fit Center   73 is at  -1.860536  0.582036  2.191476
      ESP Fit Center   74 is at  -5.424175  1.094410  2.191476
      ESP Fit Center   75 is at  -5.424175  0.069662  2.191476
      ESP Fit Center   76 is at  -3.938011  2.382178  0.091476
      ESP Fit Center   77 is at  -0.401875 -2.175150  1.044891
      ESP Fit Center   78 is at  -2.671860 -1.778197 -1.823762
      ESP Fit Center   79 is at  -0.401875 -2.175150 -2.592415
      ESP Fit Center   80 is at  -1.436557  0.042354  1.997425
      ESP Fit Center   81 is at  -3.533430 -2.259530  0.178771
      ESP Fit Center   82 is at  -2.706228 -2.830507  0.178771
      ESP Fit Center   83 is at  -3.706542 -1.379346 -0.871229
      ESP Fit Center   84 is at  -3.152522 -2.241419 -0.871229
      ESP Fit Center   85 is at  -1.270647  1.962755 -0.015348
      ESP Fit Center   86 is at  -2.119352  2.579375 -0.015348
      ESP Fit Center   87 is at  -3.168409  2.579375 -0.015348
      ESP Fit Center   88 is at  -1.663880  2.662452 -0.995348
      ESP Fit Center   89 is at  -2.643880  2.925042 -0.995348
      ESP Fit Center   90 is at  -3.623880  2.662452 -0.995348
      ESP Fit Center   91 is at  -4.341290  1.945042 -0.995348
      ESP Fit Center   92 is at  -4.603880  0.965042 -0.995348
      ESP Fit Center   93 is at  -1.270647  1.962755 -1.975348
      ESP Fit Center   94 is at  -2.119352  2.579375 -1.975348
      ESP Fit Center   95 is at  -3.168409  2.579375 -1.975348
      ESP Fit Center   96 is at  -4.017114  1.962755 -1.975348
      ESP Fit Center   97 is at  -4.341290  0.965042 -1.975348
      ESP Fit Center   98 is at  -4.017114 -0.032670 -1.975348
      ESP Fit Center   99 is at  -3.168409 -0.649291 -1.975348
      ESP Fit Center  100 is at  -1.663880  0.965042 -2.692758
      ESP Fit Center  101 is at  -2.153880  1.813747 -2.692758
      ESP Fit Center  102 is at  -3.133880  1.813747 -2.692758
      ESP Fit Center  103 is at  -3.623880  0.965042 -2.692758
      ESP Fit Center  104 is at  -3.133880  0.116337 -2.692758
      ESP Fit Center  105 is at  -2.643880  0.965042 -2.955348
      ESP Fit Center  106 is at   3.429108 -2.135567  2.417930
      ESP Fit Center  107 is at   4.416587 -2.135567  2.097078
      ESP Fit Center  108 is at   2.630220 -2.715993  2.097078
      ESP Fit Center  109 is at   3.734256 -3.074716  2.097078
      ESP Fit Center  110 is at   5.026883 -2.135567  1.257078
      ESP Fit Center  111 is at   2.630220 -3.519281  1.257078
      ESP Fit Center  112 is at   3.706558 -3.709069  1.257078
      ESP Fit Center  113 is at   4.653074 -3.162597  1.257078
      ESP Fit Center  114 is at   5.026883 -2.135567  0.218781
      ESP Fit Center  115 is at   3.706558 -3.709069  0.218781
      ESP Fit Center  116 is at   4.653074 -3.162597  0.218781
      ESP Fit Center  117 is at   4.416587 -2.135567 -0.621219
      ESP Fit Center  118 is at   3.734256 -3.074716 -0.621219
      ESP Fit Center  119 is at   4.036668  0.263725  2.398994
      ESP Fit Center  120 is at   5.024147  0.263725  2.078143
      ESP Fit Center  121 is at   4.341816  1.202874  2.078143
      ESP Fit Center  122 is at   4.341816 -0.675423  2.078143
      ESP Fit Center  123 is at   5.634443  0.263725  1.238143
      ESP Fit Center  124 is at   5.260635  1.290755  1.238143
      ESP Fit Center  125 is at   4.314119  1.837226  1.238143
      ESP Fit Center  126 is at   5.260635 -0.763305  1.238143
      ESP Fit Center  127 is at   5.634443  0.263725  0.199846
      ESP Fit Center  128 is at   5.260635  1.290755  0.199846
      ESP Fit Center  129 is at   5.260635 -0.763305  0.199846
      ESP Fit Center  130 is at   5.024147  0.263725 -0.640154
      ESP Fit Center  131 is at   0.355753 -3.434423  1.404325
      ESP Fit Center  132 is at   1.459788 -3.793146  1.404325
      ESP Fit Center  133 is at  -0.346777 -3.400468  0.564325
      ESP Fit Center  134 is at   0.355753 -4.237711  0.564325
      ESP Fit Center  135 is at   1.432091 -4.427498  0.564325
      ESP Fit Center  136 is at   2.378607 -3.881027  0.564325
      ESP Fit Center  137 is at   0.355753 -4.237711 -0.473972
      ESP Fit Center  138 is at   1.432091 -4.427498 -0.473972
      ESP Fit Center  139 is at   2.378607 -3.881027 -0.473972
      ESP Fit Center  140 is at   0.355753 -3.434423 -1.313972
      ESP Fit Center  141 is at   1.459788 -3.793146 -1.313972
      ESP Fit Center  142 is at  -0.704231  1.820786  0.668235
      ESP Fit Center  143 is at  -0.704231  2.624074 -0.171765
      ESP Fit Center  144 is at  -0.704231  2.624074 -1.210062
      ESP Fit Center  145 is at   0.399804  2.179509 -2.050062
      ESP Fit Center  146 is at  -0.704231  1.820786 -2.050062
      ESP Fit Center  147 is at   0.094656  1.240360 -2.370914
      ESP Fit Center  148 is at   4.929463  2.577308 -0.155344
      ESP Fit Center  149 is at   4.555654  3.604338 -0.155344
      ESP Fit Center  150 is at   4.929463  2.577308 -1.193641
      ESP Fit Center  151 is at   4.555654  3.604338 -1.193641
      ESP Fit Center  152 is at   3.609138  4.150809 -1.193641
      ESP Fit Center  153 is at   4.555654  1.550278 -1.193641
      ESP Fit Center  154 is at   4.319167  2.577308 -2.033641
      ESP Fit Center  155 is at   3.636835  3.516457 -2.033641
      ESP Fit Center  156 is at   2.532800  3.157734 -2.033641
      ESP Fit Center  157 is at   3.636835  1.638159 -2.033641
      ESP Fit Center  158 is at   3.331688  2.577308 -2.354493
      ESP Fit Center  159 is at   0.850137  3.594279  1.018067
      ESP Fit Center  160 is at   1.926476  4.587354  0.178067
      ESP Fit Center  161 is at   0.850137  4.397567  0.178067
      ESP Fit Center  162 is at   0.147608  3.560324  0.178067
      ESP Fit Center  163 is at   1.926476  4.587354 -0.860230
      ESP Fit Center  164 is at   0.850137  4.397567 -0.860230
      ESP Fit Center  165 is at   0.147608  3.560324 -0.860230
      ESP Fit Center  166 is at   1.954173  3.953001 -1.700230
      ESP Fit Center  167 is at   0.850137  3.594279 -1.700230
      ESP Fit Center  168 is at   0.850137  2.433427 -1.700230
      ESP Fit Center  169 is at   1.649025  3.013853 -2.021081
      ESP Fit Center  170 is at   2.780923  2.741101  2.672885
      ESP Fit Center  171 is at   3.768402  2.741101  2.352033
      ESP Fit Center  172 is at   3.086071  3.680249  2.352033
      ESP Fit Center  173 is at   1.982036  3.321527  2.352033
      ESP Fit Center  174 is at   1.982036  2.160675  2.352033
      ESP Fit Center  175 is at   3.086071  1.801952  2.352033
      ESP Fit Center  176 is at   4.378698  2.741101  1.512033
      ESP Fit Center  177 is at   4.004890  3.768131  1.512033
      ESP Fit Center  178 is at   3.058374  4.314602  1.512033
      ESP Fit Center  179 is at   1.982036  4.124815  1.512033
      ESP Fit Center  180 is at   1.279506  3.287572  1.512033
      ESP Fit Center  181 is at   4.004890  3.768131  0.473736
      ESP Fit Center  182 is at  -3.392781  1.540230  3.267186
      ESP Fit Center  183 is at  -2.405302  1.540230  2.946334
      ESP Fit Center  184 is at  -3.087633  2.479378  2.946334
      ESP Fit Center  185 is at  -4.191668  2.120655  2.946334
      ESP Fit Center  186 is at  -1.795006  1.540230  2.106334
      ESP Fit Center  187 is at  -2.168814  2.567260  2.106334
      ESP Fit Center  188 is at  -3.115330  3.113731  2.106334
      ESP Fit Center  189 is at  -4.191668  2.923943  2.106334
      ESP Fit Center  190 is at  -4.894198  2.086701  2.106334
      ESP Fit Center  191 is at  -2.168814  2.567260  1.068037
      ESP Fit Center  192 is at  -3.115330  3.113731  1.068037
      ESP Fit Center  193 is at  -4.191668  2.923943  1.068037
      ESP Fit Center  194 is at  -3.087633  2.479378  0.228037
      ESP Fit Center  195 is at  -5.482304  1.283991  2.084503
      ESP Fit Center  196 is at  -5.482304  2.087279  1.244503
      ESP Fit Center  197 is at  -6.184834  1.250037  1.244503
      ESP Fit Center  198 is at  -6.184834  0.157094  1.244503
      ESP Fit Center  199 is at  -5.482304 -0.680148  1.244503
      ESP Fit Center  200 is at  -5.482304  2.087279  0.206206
      ESP Fit Center  201 is at  -6.184834  1.250037  0.206206
      ESP Fit Center  202 is at  -6.184834  0.157094  0.206206
      ESP Fit Center  203 is at  -5.482304 -0.680148  0.206206
      ESP Fit Center  204 is at  -5.482304  1.283991 -0.633794
      ESP Fit Center  205 is at  -5.482304  0.123140 -0.633794
      ESP Fit Center  206 is at  -4.683417  0.703566 -0.954646
      ESP Fit Center  207 is at  -3.708344 -0.179967  3.606780
      ESP Fit Center  208 is at  -2.720865 -0.179967  3.285929
      ESP Fit Center  209 is at  -3.403196  0.759182  3.285929
      ESP Fit Center  210 is at  -4.507232  0.400459  3.285929
      ESP Fit Center  211 is at  -4.507232 -0.760392  3.285929
      ESP Fit Center  212 is at  -3.403196 -1.119115  3.285929
      ESP Fit Center  213 is at  -2.110569 -0.179967  2.445929
      ESP Fit Center  214 is at  -5.209761 -0.726438  2.445929
      ESP Fit Center  215 is at  -4.507232 -1.563680  2.445929
      ESP Fit Center  216 is at  -3.430893 -1.753468  2.445929
      ESP Fit Center  217 is at  -4.507232 -1.563680  1.407632
      ESP Fit Center  218 is at  -0.927187  0.774696 -2.241152
      ESP Fit Center  219 is at  -2.706055 -1.345276 -2.241152
      ESP Fit Center  220 is at  -0.217159 -0.798805 -3.081152
      ESP Fit Center  221 is at  -0.899490  0.140344 -3.081152
      ESP Fit Center  222 is at  -2.003525 -0.218379 -3.081152
      ESP Fit Center  223 is at  -2.003525 -1.379231 -3.081152
      ESP Fit Center  224 is at  -0.899490 -1.737953 -3.081152
      ESP Fit Center  225 is at  -1.204638 -0.798805 -3.402004
      ESP Fit Center  226 is at  -0.668879 -3.292278  0.456002
      ESP Fit Center  227 is at  -2.475445 -2.899601 -0.383998
      ESP Fit Center  228 is at  -1.772915 -3.736843 -0.383998
      ESP Fit Center  229 is at  -0.696577 -3.926631 -0.383998
      ESP Fit Center  230 is at  -2.475445 -2.899601 -1.422295
      ESP Fit Center  231 is at  -1.772915 -3.736843 -1.422295
      ESP Fit Center  232 is at  -0.696577 -3.926631 -1.422295
      ESP Fit Center  233 is at   0.249939 -3.380159 -1.422295
      ESP Fit Center  234 is at  -1.772915 -2.933555 -2.262295
      ESP Fit Center  235 is at  -0.668879 -3.292278 -2.262295
      ESP Fit Center  236 is at  -0.974027 -2.353129 -2.583147
      ESP Fit Center  237 is at  -1.966102 -1.316936  2.763447
      ESP Fit Center  238 is at  -0.978623 -1.316936  2.442596
      ESP Fit Center  239 is at  -1.660954 -0.377788  2.442596
      ESP Fit Center  240 is at  -2.764989 -1.897362  2.442596
      ESP Fit Center  241 is at  -1.660954 -2.256085  2.442596
      ESP Fit Center  242 is at  -0.368327 -1.316936  1.602596
      ESP Fit Center  243 is at  -3.467519 -1.863408  1.602596
      ESP Fit Center  244 is at  -2.764989 -2.700650  1.602596
      ESP Fit Center  245 is at  -1.688651 -2.890438  1.602596
      ESP Fit Center  246 is at  -0.742135 -2.343966  1.602596
      ESP Fit Center  247 is at   2.697350 -1.393834  2.827845
      ESP Fit Center  248 is at   3.738671 -1.393834  2.590170
      ESP Fit Center  249 is at   1.656029 -1.393834  2.590170
      ESP Fit Center  250 is at   2.176689 -2.295645  2.590170
      ESP Fit Center  251 is at   5.037177 -1.393834 -0.106206
      ESP Fit Center  252 is at   4.573745 -1.393834 -1.068531
      ESP Fit Center  253 is at   3.476833 -3.100664 -1.068531
      ESP Fit Center  254 is at   4.275874 -2.408290 -1.068531
      ESP Fit Center  255 is at   3.738671 -1.393834 -1.734481
      ESP Fit Center  256 is at   3.218010 -2.295645 -1.734481
      ESP Fit Center  257 is at   2.697350 -1.393834 -1.972155
      ESP Fit Center  258 is at   3.037608 -0.044075  2.817144
      ESP Fit Center  259 is at   3.558268  0.857736  2.579469
      ESP Fit Center  260 is at   2.516947  0.857736  2.579469
      ESP Fit Center  261 is at   1.996287 -0.044075  2.579469
      ESP Fit Center  262 is at   4.914004 -0.044075 -1.079232
      ESP Fit Center  263 is at   4.616132  0.970381 -1.079232
      ESP Fit Center  264 is at   4.616132 -1.058531 -1.079232
      ESP Fit Center  265 is at   4.078929 -0.044075 -1.745182
      ESP Fit Center  266 is at   3.037608 -0.044075 -1.982856
      ESP Fit Center  267 is at   1.416620 -1.797818  2.439613
      ESP Fit Center  268 is at   0.895960 -0.896008  2.201939
      ESP Fit Center  269 is at   0.375299 -1.797818  2.201939
      ESP Fit Center  270 is at   0.895960 -2.699629  2.201939
      ESP Fit Center  271 is at  -0.383768 -2.326460  1.535989
      ESP Fit Center  272 is at   2.196103 -3.504648  1.535989
      ESP Fit Center  273 is at   2.875478 -3.627169 -0.494437
      ESP Fit Center  274 is at   2.196103 -3.504648 -1.456762
      ESP Fit Center  275 is at   2.457941 -1.797818 -2.122712
      ESP Fit Center  276 is at   0.895960 -2.699629 -2.122712
      ESP Fit Center  277 is at   1.937281 -2.699629 -2.122712
      ESP Fit Center  278 is at   1.416620 -1.797818 -2.360387
      ESP Fit Center  279 is at   0.831453  0.507132  2.029610
      ESP Fit Center  280 is at   0.310793  1.408942  1.791935
      ESP Fit Center  281 is at  -0.209868  0.507132  1.791935
      ESP Fit Center  282 is at  -0.397325  1.925217  1.125985
      ESP Fit Center  283 is at   1.872774  0.507132 -2.532715
      ESP Fit Center  284 is at   1.352114  1.408942 -2.532715
      ESP Fit Center  285 is at   0.831453  0.507132 -2.770390
      ESP Fit Center  286 is at   2.106536  0.927663  2.415287
      ESP Fit Center  287 is at   1.065215  0.927663  2.177612
      ESP Fit Center  288 is at   3.147857  0.927663 -2.147038
      ESP Fit Center  289 is at   2.627196  0.025853 -2.147038
      ESP Fit Center  290 is at   2.106536  0.927663 -2.384713
      ESP Fit Center  291 is at   0.473270 -0.849702  2.038264
      ESP Fit Center  292 is at   1.514591 -0.849702 -2.524061
      ESP Fit Center  293 is at   0.993930 -1.751513 -2.524061
      ESP Fit Center  294 is at   0.473270 -0.849702 -2.761736
      ESP Fit Center  295 is at  -1.139254  1.275171  1.502248
      ESP Fit Center  296 is at  -1.258920  2.090066  0.539923
      ESP Fit Center  297 is at  -4.825889 -0.754498 -0.528178
      ESP Fit Center  298 is at  -4.176636 -1.568635 -0.528178
      ESP Fit Center  299 is at  -4.518166 -0.267926 -1.490503
      ESP Fit Center  300 is at  -3.946556 -1.157370 -1.490503
      ESP Fit Center  301 is at   1.254653  3.809579  1.492572
      ESP Fit Center  302 is at   0.683042  2.920136  1.492572
      ESP Fit Center  303 is at   4.823258  2.391494  0.530247
      ESP Fit Center  304 is at   4.591542  3.406707  0.530247
      ESP Fit Center  305 is at   3.942289  4.220845  0.530247
      ESP Fit Center  306 is at   3.004091  4.672657  0.530247
      ESP Fit Center  307 is at   3.004091  4.672657 -0.537854
      ESP Fit Center  308 is at   1.442110  2.391494 -2.166129
      ESP Fit Center  309 is at   2.483431  2.391494 -2.403803
      ESP Fit Center  310 is at  -1.802794  0.582036  2.637851
      ESP Fit Center  311 is at  -5.479578  1.110678  2.637851
      ESP Fit Center  312 is at  -5.479578  0.053394  2.637851
      ESP Fit Center  313 is at  -5.138048  2.411386  1.675526
      ESP Fit Center  314 is at  -5.138048 -1.247314  0.607425
      ESP Fit Center  315 is at  -4.199850 -1.699127  0.607425
      ESP Fit Center  316 is at  -0.406215 -2.167633 -2.936087
      ESP Fit Center  317 is at  -0.383033  0.147484  1.675147
      ESP Fit Center  318 is at  -4.069669 -1.882185  0.712821
      ESP Fit Center  319 is at  -3.420416 -2.696323  0.712821
      ESP Fit Center  320 is at  -2.482218 -3.148135  0.712821
      ESP Fit Center  321 is at  -4.069669 -1.882185 -0.355279
      ESP Fit Center  322 is at  -3.420416 -2.696323 -0.355279
      ESP Fit Center  323 is at  -3.190335 -2.285058 -1.317604
      ESP Fit Center  324 is at  -2.102698  2.630630  0.401269
      ESP Fit Center  325 is at  -1.403319  2.762306 -0.496902
      ESP Fit Center  326 is at  -2.380648  3.132958 -0.496902
      ESP Fit Center  327 is at  -3.418280  3.006967 -0.496902
      ESP Fit Center  328 is at  -4.278507  2.413195 -0.496902
      ESP Fit Center  329 is at  -1.403319  2.762306 -1.493795
      ESP Fit Center  330 is at  -2.380648  3.132958 -1.493795
      ESP Fit Center  331 is at  -3.418280  3.006967 -1.493795
      ESP Fit Center  332 is at  -4.278507  2.413195 -1.493795
      ESP Fit Center  333 is at  -4.764260  1.487669 -1.493795
      ESP Fit Center  334 is at  -4.764260  0.442415 -1.493795
      ESP Fit Center  335 is at  -1.227047  1.994432 -2.391966
      ESP Fit Center  336 is at  -2.102698  2.630630 -2.391966
      ESP Fit Center  337 is at  -3.185063  2.630630 -2.391966
      ESP Fit Center  338 is at  -4.060714  1.994432 -2.391966
      ESP Fit Center  339 is at  -4.395183  0.965042 -2.391966
      ESP Fit Center  340 is at  -4.060714 -0.064348 -2.391966
      ESP Fit Center  341 is at  -3.185063 -0.700546 -2.391966
      ESP Fit Center  342 is at  -1.671981  0.965042 -3.013519
      ESP Fit Center  343 is at  -2.157931  1.806732 -3.013519
      ESP Fit Center  344 is at  -3.129830  1.806732 -3.013519
      ESP Fit Center  345 is at  -3.615780  0.965042 -3.013519
      ESP Fit Center  346 is at  -3.129830  0.123352 -3.013519
      ESP Fit Center  347 is at  -2.643880  0.965042 -3.235348
      ESP Fit Center  348 is at   3.429108 -2.135567  2.657930
      ESP Fit Center  349 is at   4.389108 -2.135567  2.400699
      ESP Fit Center  350 is at   2.949108 -2.966952  2.400699
      ESP Fit Center  351 is at   3.909108 -2.966952  2.400699
      ESP Fit Center  352 is at   5.091876 -2.135567  1.697930
      ESP Fit Center  353 is at   2.915284 -3.716954  1.697930
      ESP Fit Center  354 is at   3.942932 -3.716954  1.697930
      ESP Fit Center  355 is at   4.774316 -3.112918  1.697930
      ESP Fit Center  356 is at   5.349108 -2.135567  0.737930
      ESP Fit Center  357 is at   3.429108 -4.055567  0.737930
      ESP Fit Center  358 is at   4.389108 -3.798336  0.737930
      ESP Fit Center  359 is at   5.091876 -3.095567  0.737930
      ESP Fit Center  360 is at   5.091876 -2.135567 -0.222070
      ESP Fit Center  361 is at   2.915284 -3.716954 -0.222070
      ESP Fit Center  362 is at   3.942932 -3.716954 -0.222070
      ESP Fit Center  363 is at   4.774316 -3.112918 -0.222070
      ESP Fit Center  364 is at   3.909108 -2.966952 -0.924839
      ESP Fit Center  365 is at   4.036668  0.263725  2.638994
      ESP Fit Center  366 is at   4.996668  0.263725  2.381763
      ESP Fit Center  367 is at   4.516668  1.095110  2.381763
      ESP Fit Center  368 is at   4.516668 -0.567659  2.381763
      ESP Fit Center  369 is at   5.699437  0.263725  1.678994
      ESP Fit Center  370 is at   5.381876  1.241076  1.678994
      ESP Fit Center  371 is at   4.550492  1.845112  1.678994
      ESP Fit Center  372 is at   5.381876 -0.713626  1.678994
      ESP Fit Center  373 is at   5.956668  0.263725  0.718994
      ESP Fit Center  374 is at   5.699437  1.223725  0.718994
      ESP Fit Center  375 is at   4.996668  1.926494  0.718994
      ESP Fit Center  376 is at   5.699437 -0.696275  0.718994
      ESP Fit Center  377 is at   5.699437  0.263725 -0.241006
      ESP Fit Center  378 is at   5.381876  1.241076 -0.241006
      ESP Fit Center  379 is at   5.381876 -0.713626 -0.241006
      ESP Fit Center  380 is at   4.996668  0.263725 -0.943774
      ESP Fit Center  381 is at   0.674640 -3.685382  1.707946
      ESP Fit Center  382 is at   1.634640 -3.685382  1.707946
      ESP Fit Center  383 is at  -0.190568 -3.831348  1.005177
      ESP Fit Center  384 is at   0.640816 -4.435384  1.005177
      ESP Fit Center  385 is at   1.668464 -4.435384  1.005177
      ESP Fit Center  386 is at   2.499848 -3.831348  1.005177
      ESP Fit Center  387 is at   0.194640 -4.516766  0.045177
      ESP Fit Center  388 is at   1.154640 -4.773997  0.045177
      ESP Fit Center  389 is at   2.114640 -4.516766  0.045177
      ESP Fit Center  390 is at   0.640816 -4.435384 -0.914823
      ESP Fit Center  391 is at   1.668464 -4.435384 -0.914823
      ESP Fit Center  392 is at   2.499848 -3.831348 -0.914823
      ESP Fit Center  393 is at   0.674640 -3.685382 -1.617592
      ESP Fit Center  394 is at   1.634640 -3.685382 -1.617592
      ESP Fit Center  395 is at  -0.419167  2.821748  0.269086
      ESP Fit Center  396 is at  -1.250552  2.217711  0.269086
      ESP Fit Center  397 is at  -0.865344  2.903129 -0.690914
      ESP Fit Center  398 is at  -0.419167  2.821748 -1.650914
      ESP Fit Center  399 is at   0.574656  2.071745 -2.353683
      ESP Fit Center  400 is at  -0.385344  2.071745 -2.353683
      ESP Fit Center  401 is at  -0.865344  1.240360 -2.353683
      ESP Fit Center  402 is at   0.094656  1.240360 -2.610914
      ESP Fit Center  403 is at   4.994456  2.577308  0.285507
      ESP Fit Center  404 is at   4.676896  3.554659  0.285507
      ESP Fit Center  405 is at   5.251688  2.577308 -0.674493
      ESP Fit Center  406 is at   4.994456  3.537308 -0.674493
      ESP Fit Center  407 is at   4.291688  4.240077 -0.674493
      ESP Fit Center  408 is at   4.994456  1.617308 -0.674493
      ESP Fit Center  409 is at   4.994456  2.577308 -1.634493
      ESP Fit Center  410 is at   4.676896  3.554659 -1.634493
      ESP Fit Center  411 is at   3.845511  4.158695 -1.634493
      ESP Fit Center  412 is at   2.817864  4.158695 -1.634493
      ESP Fit Center  413 is at   4.676896  1.599957 -1.634493
      ESP Fit Center  414 is at   4.291688  2.577308 -2.337262
      ESP Fit Center  415 is at   3.811688  3.408692 -2.337262
      ESP Fit Center  416 is at   2.851688  3.408692 -2.337262
      ESP Fit Center  417 is at   2.851688  1.745924 -2.337262
      ESP Fit Center  418 is at   3.811688  1.745924 -2.337262
      ESP Fit Center  419 is at   3.331688  2.577308 -2.594493
      ESP Fit Center  420 is at   1.135201  4.595240  0.618919
      ESP Fit Center  421 is at   0.303817  3.991204  0.618919
      ESP Fit Center  422 is at  -0.013744  3.013853  0.618919
      ESP Fit Center  423 is at   1.649025  4.933853 -0.341081
      ESP Fit Center  424 is at   0.689025  4.676622 -0.341081
      ESP Fit Center  425 is at  -0.013744  3.973853 -0.341081
      ESP Fit Center  426 is at   2.162849  4.595240 -1.301081
      ESP Fit Center  427 is at   1.135201  4.595240 -1.301081
      ESP Fit Center  428 is at   0.303817  3.991204 -1.301081
      ESP Fit Center  429 is at   2.129025  3.845237 -2.003850
      ESP Fit Center  430 is at   1.169025  3.845237 -2.003850
      ESP Fit Center  431 is at   0.689025  3.013853 -2.003850
      ESP Fit Center  432 is at   1.649025  3.013853 -2.261081
      ESP Fit Center  433 is at   2.780923  2.741101  2.912885
      ESP Fit Center  434 is at   3.740923  2.741101  2.655653
      ESP Fit Center  435 is at   3.260923  3.572485  2.655653
      ESP Fit Center  436 is at   2.300923  3.572485  2.655653
      ESP Fit Center  437 is at   1.820923  2.741101  2.655653
      ESP Fit Center  438 is at   2.300923  1.909716  2.655653
      ESP Fit Center  439 is at   3.260923  1.909716  2.655653
      ESP Fit Center  440 is at   4.443692  2.741101  1.952885
      ESP Fit Center  441 is at   4.126131  3.718452  1.952885
      ESP Fit Center  442 is at   3.294747  4.322488  1.952885
      ESP Fit Center  443 is at   2.267099  4.322488  1.952885
      ESP Fit Center  444 is at   1.435715  3.718452  1.952885
      ESP Fit Center  445 is at   1.118154  2.741101  1.952885
      ESP Fit Center  446 is at   4.126131  1.763750  1.952885
      ESP Fit Center  447 is at   4.700923  2.741101  0.992885
      ESP Fit Center  448 is at   4.443692  3.701101  0.992885
      ESP Fit Center  449 is at   3.740923  4.403870  0.992885
      ESP Fit Center  450 is at   2.780923  4.661101  0.992885
      ESP Fit Center  451 is at  -3.392781  1.540230  3.507186
      ESP Fit Center  452 is at  -2.432781  1.540230  3.249955
      ESP Fit Center  453 is at  -2.912781  2.371614  3.249955
      ESP Fit Center  454 is at  -3.872781  2.371614  3.249955
      ESP Fit Center  455 is at  -4.352781  1.540230  3.249955
      ESP Fit Center  456 is at  -1.730012  1.540230  2.547186
      ESP Fit Center  457 is at  -2.047573  2.517581  2.547186
      ESP Fit Center  458 is at  -2.878957  3.121617  2.547186
      ESP Fit Center  459 is at  -3.906605  3.121617  2.547186
      ESP Fit Center  460 is at  -4.737989  2.517581  2.547186
      ESP Fit Center  461 is at  -1.730012  2.500230  1.587186
      ESP Fit Center  462 is at  -2.432781  3.202998  1.587186
      ESP Fit Center  463 is at  -3.392781  3.460230  1.587186
      ESP Fit Center  464 is at  -4.352781  3.202998  1.587186
      ESP Fit Center  465 is at  -5.055550  2.500230  1.587186
      ESP Fit Center  466 is at  -2.047573  2.517581  0.627186
      ESP Fit Center  467 is at  -2.878957  3.121617  0.627186
      ESP Fit Center  468 is at  -3.906605  3.121617  0.627186
      ESP Fit Center  469 is at  -6.028625  1.680917  1.685354
      ESP Fit Center  470 is at  -6.346185  0.703566  1.685354
      ESP Fit Center  471 is at  -6.028625 -0.273785  1.685354
      ESP Fit Center  472 is at  -5.643417  2.366334  0.725354
      ESP Fit Center  473 is at  -6.346185  1.663566  0.725354
      ESP Fit Center  474 is at  -6.603417  0.703566  0.725354
      ESP Fit Center  475 is at  -6.346185 -0.256434  0.725354
      ESP Fit Center  476 is at  -5.643417 -0.959203  0.725354
      ESP Fit Center  477 is at  -5.197240  2.284953 -0.234646
      ESP Fit Center  478 is at  -6.028625  1.680917 -0.234646
      ESP Fit Center  479 is at  -6.346185  0.703566 -0.234646
      ESP Fit Center  480 is at  -6.028625 -0.273785 -0.234646
      ESP Fit Center  481 is at  -5.197240 -0.877822 -0.234646
      ESP Fit Center  482 is at  -5.163417  1.534950 -0.937415
      ESP Fit Center  483 is at  -5.643417  0.703566 -0.937415
      ESP Fit Center  484 is at  -5.163417 -0.127819 -0.937415
      ESP Fit Center  485 is at  -3.708344 -0.179967  3.846780
      ESP Fit Center  486 is at  -2.748344 -0.179967  3.589549
      ESP Fit Center  487 is at  -3.228344  0.651418  3.589549
      ESP Fit Center  488 is at  -4.188344  0.651418  3.589549
      ESP Fit Center  489 is at  -4.668344 -0.179967  3.589549
      ESP Fit Center  490 is at  -4.188344 -1.011351  3.589549
      ESP Fit Center  491 is at  -3.228344 -1.011351  3.589549
      ESP Fit Center  492 is at  -2.045575 -0.179967  2.886780
      ESP Fit Center  493 is at  -5.371113 -0.179967  2.886780
      ESP Fit Center  494 is at  -5.053552 -1.157318  2.886780
      ESP Fit Center  495 is at  -4.222168 -1.761354  2.886780
      ESP Fit Center  496 is at  -3.194520 -1.761354  2.886780
      ESP Fit Center  497 is at  -5.371113 -1.139967  1.926780
      ESP Fit Center  498 is at  -4.668344 -1.842735  1.926780
      ESP Fit Center  499 is at  -3.708344 -2.099967  1.926780
      ESP Fit Center  500 is at  -4.222168 -1.761354  0.966780
      ESP Fit Center  501 is at   0.140570  0.178546 -2.682004
      ESP Fit Center  502 is at  -0.690814  0.782582 -2.682004
      ESP Fit Center  503 is at  -2.867407 -0.798805 -2.682004
      ESP Fit Center  504 is at  -2.549846 -1.776156 -2.682004
      ESP Fit Center  505 is at  -0.244638 -0.798805 -3.384772
      ESP Fit Center  506 is at  -0.724638  0.032580 -3.384772
      ESP Fit Center  507 is at  -1.684638  0.032580 -3.384772
[...]
  421 Fit      -0.000341
  422 Fit      -0.002025
  423 Fit       0.000690
  424 Fit       0.000688
  425 Fit      -0.001451
  426 Fit      -0.000639
  427 Fit      -0.000099
  428 Fit      -0.002161
  429 Fit      -0.002909
  430 Fit      -0.002713
  431 Fit      -0.005203
  432 Fit      -0.005702
  433 Fit       0.004088
  434 Fit       0.005866
  435 Fit       0.005797
  436 Fit       0.003925
  437 Fit       0.000971
  438 Fit      -0.001527
  439 Fit       0.002441
  440 Fit       0.006113
  441 Fit       0.005443
  442 Fit       0.004518
  443 Fit       0.002736
  444 Fit       0.000317
  445 Fit      -0.002669
  446 Fit       0.006819
  447 Fit       0.004688
  448 Fit       0.003291
  449 Fit       0.002577
  450 Fit       0.001434
  451 Fit       0.012471
  452 Fit       0.012449
  453 Fit       0.011854
  454 Fit       0.011261
  455 Fit       0.011465
  456 Fit       0.010889
  457 Fit       0.009759
  458 Fit       0.009643
  459 Fit       0.009067
  460 Fit       0.008518
  461 Fit       0.004529
  462 Fit       0.003706
  463 Fit       0.003603
  464 Fit       0.003526
  465 Fit       0.004734
  466 Fit      -0.010771
  467 Fit      -0.010267
  468 Fit      -0.007774
  469 Fit       0.007913
  470 Fit       0.010015
  471 Fit       0.010874
  472 Fit       0.001786
  473 Fit       0.006382
  474 Fit       0.008962
  475 Fit       0.009638
  476 Fit       0.009669
  477 Fit      -0.009553
  478 Fit       0.000336
  479 Fit       0.004963
  480 Fit       0.006096
  481 Fit       0.006289
  482 Fit      -0.017226
  483 Fit      -0.004668
  484 Fit      -0.003184
  485 Fit       0.017264
  486 Fit       0.019613
  487 Fit       0.014610
  488 Fit       0.013480
  489 Fit       0.015176
  490 Fit       0.019362
  491 Fit       0.023220
  492 Fit       0.024459
  493 Fit       0.012950
  494 Fit       0.016183
  495 Fit       0.021762
  496 Fit       0.031074
  497 Fit       0.013046
  498 Fit       0.017378
  499 Fit       0.027264
  500 Fit       0.014509
  501 Fit      -0.013650
  502 Fit      -0.023338
  503 Fit      -0.021692
  504 Fit      -0.005696
  505 Fit      -0.005261
  506 Fit      -0.011908
  507 Fit      -0.020228
  508 Fit      -0.012343
  509 Fit      -0.003034
  510 Fit      -0.001242
  511 Fit      -0.006427
  512 Fit       0.026834
  513 Fit       0.013676
  514 Fit       0.017680
  515 Fit       0.020769
  516 Fit       0.006163
  517 Fit       0.012328
  518 Fit       0.015202
  519 Fit       0.005317
  520 Fit       0.009927
  521 Fit       0.011082
  522 Fit       0.007556
  523 Fit       0.004980
  524 Fit       0.005714
  525 Fit       0.033041
  526 Fit       0.024608
  527 Fit       0.024547
  528 Fit       0.035181
  529 Fit       0.031699
  530 Fit       0.009849
  531 Fit       0.031352
  532 Fit       0.031343
  533 Fit       0.031064
  534 Fit       0.023747
  535 Fit       0.020847
  536 Fit       0.026478
  537 Fit       0.028722
  538 Fit      -0.007133
  539 Fit      -0.001744
  540 Fit      -0.010157
  541 Fit      -0.004043
  542 Fit      -0.000174
  543 Fit       0.003578
  544 Fit      -0.001861
  545 Fit       0.004011
  546 Fit      -0.010410
  547 Fit      -0.005598
  548 Fit      -0.007062
  549 Fit      -0.016922
  550 Fit      -0.014335
  551 Fit      -0.007966
  552 Fit      -0.001134
  553 Fit      -0.002546
  554 Fit      -0.008322
  555 Fit      -0.013502
  556 Fit       0.004739
  557 Fit      -0.001780
  558 Fit      -0.007205
  559 Fit      -0.003686
  560 Fit      -0.011028
  561 Fit      -0.014423
  562 Fit      -0.012162
  563 Fit      -0.000287
  564 Fit       0.000678
  565 Fit       0.010484
  566 Fit       0.001088
  567 Fit      -0.003330
  568 Fit      -0.010465
  569 Fit      -0.018106
  570 Fit      -0.003886
  571 Fit      -0.010055
  572 Fit      -0.009002
  573 Fit      -0.006413
  574 Fit      -0.004354
  575 Fit      -0.025295
  576 Fit      -0.018911
  577 Fit      -0.015195
  578 Fit      -0.016654
  579 Fit      -0.016574
  580 Fit      -0.011956
  581 Fit      -0.013627
  582 Fit      -0.021675
  583 Fit      -0.017821
  584 Fit      -0.009967
  585 Fit       0.004719
  586 Fit      -0.002846
  587 Fit      -0.002755
  588 Fit      -0.004224
  589 Fit      -0.014120
  590 Fit      -0.002612
  591 Fit       0.005891
  592 Fit       0.000188
  593 Fit       0.000493
  594 Fit      -0.000107
  595 Fit      -0.000485
  596 Fit      -0.005384
  597 Fit      -0.009270
  598 Fit      -0.007260
  599 Fit       0.010649
  600 Fit       0.013661
  601 Fit       0.008604
  602 Fit       0.008994
  603 Fit       0.005800
  604 Fit       0.010549
  605 Fit       0.009719
  606 Fit      -0.015684
  607 Fit       0.006535
  608 Fit      -0.004761
  609 Fit       0.000190
  610 Fit      -0.004404
  611 Fit      -0.000704
  612 Fit      -0.003726
  613 Fit       0.017323
  614 Fit       0.005342
  615 Fit       0.004298
  616 Fit       0.009020
  617 Fit      -0.003438
  618 Fit      -0.001644
  619 Fit      -0.012198
  620 Fit      -0.028194
  621 Fit      -0.030158
  622 Fit      -0.027353
  623 Fit      -0.028543
  624 Fit      -0.036034
  625 Fit      -0.038695
  626 Fit      -0.037509
  627 Fit      -0.032037
  628 Fit      -0.023651
  629 Fit      -0.032917
  630 Fit      -0.038495
  631 Fit      -0.041464
  632 Fit      -0.041091
  633 Fit      -0.037177
  634 Fit      -0.031407
  635 Fit      -0.025895
  636 Fit      -0.033643
  637 Fit      -0.039720
  638 Fit      -0.041307
  639 Fit      -0.038165
  640 Fit      -0.032443
  641 Fit      -0.037806
  642 Fit       0.005547
  643 Fit       0.003271
  644 Fit       0.006533
  645 Fit       0.008344
  646 Fit       0.008826
  647 Fit       0.009325
  648 Fit       0.009080
  649 Fit       0.007398
  650 Fit       0.009424
  651 Fit       0.008883
  652 Fit       0.008184
  653 Fit       0.002223
  654 Fit       0.006369
  655 Fit       0.005327
  656 Fit       0.004279
  657 Fit       0.005465
  658 Fit       0.004460
  659 Fit       0.002911
  660 Fit       0.008032
  661 Fit       0.007895
  662 Fit       0.007078
  663 Fit       0.007819
  664 Fit       0.007372
  665 Fit       0.007657
  666 Fit       0.007108
  667 Fit       0.006930
  668 Fit       0.003571
  669 Fit       0.004868
  670 Fit       0.001477
  671 Fit       0.009795
  672 Fit       0.007092
  673 Fit       0.020883
  674 Fit       0.015196
  675 Fit       0.012498
  676 Fit       0.010801
  677 Fit       0.017526
  678 Fit       0.013925
  679 Fit       0.011574
  680 Fit       0.009694
  681 Fit       0.010375
  682 Fit       0.006866
  683 Fit       0.006793
  684 Fit       0.000710
  685 Fit      -0.011122
  686 Fit      -0.011313
  687 Fit      -0.010616
  688 Fit      -0.012140
  689 Fit      -0.021410
  690 Fit       0.004866
  691 Fit       0.002896
  692 Fit       0.004195
  693 Fit       0.003455
  694 Fit       0.002121
  695 Fit       0.004115
  696 Fit       0.002749
  697 Fit       0.002783
  698 Fit       0.001278
  699 Fit      -0.000942
  700 Fit      -0.000050
  701 Fit       0.000175
  702 Fit      -0.000028
  703 Fit      -0.003185
  704 Fit      -0.004698
  705 Fit      -0.003570
  706 Fit      -0.000069
  707 Fit      -0.000753
  708 Fit      -0.002416
  709 Fit      -0.000123
  710 Fit      -0.000383
  711 Fit      -0.002301
  712 Fit      -0.006105
  713 Fit      -0.001172
  714 Fit      -0.001234
  715 Fit      -0.003059
  716 Fit      -0.007413
  717 Fit      -0.003245
  718 Fit      -0.004114
  719 Fit      -0.007514
  720 Fit      -0.006507
  721 Fit       0.002917
  722 Fit       0.004638
  723 Fit       0.004482
  724 Fit       0.002899
  725 Fit       0.000300
  726 Fit      -0.002473
  727 Fit       0.001335
  728 Fit       0.005321
  729 Fit       0.004479
  730 Fit       0.003693
  731 Fit       0.002462
  732 Fit       0.000801
  733 Fit      -0.001241
  734 Fit       0.003059
  735 Fit       0.002229
  736 Fit       0.001297
  737 Fit       0.011213
  738 Fit       0.010944
  739 Fit       0.009828
  740 Fit       0.009485
  741 Fit       0.008746
  742 Fit       0.007485
  743 Fit       0.007318
  744 Fit       0.007073
  745 Fit       0.006925
  746 Fit       0.002165
  747 Fit       0.001417
  748 Fit       0.001386
  749 Fit       0.001653
  750 Fit       0.002643
  751 Fit      -0.013305
  752 Fit      -0.010556
  753 Fit       0.005704
  754 Fit       0.007644
  755 Fit       0.009028
  756 Fit      -0.001108
  757 Fit       0.003001
  758 Fit       0.005913
  759 Fit       0.007412
  760 Fit       0.007996
  761 Fit      -0.015374
  762 Fit      -0.004512
  763 Fit       0.001107
  764 Fit       0.003544
  765 Fit       0.004087
  766 Fit      -0.019776
  767 Fit      -0.007061
  768 Fit      -0.005873
  769 Fit       0.015186
  770 Fit       0.017355
  771 Fit       0.013164
  772 Fit       0.012047
  773 Fit       0.013314
  774 Fit       0.016934
  775 Fit       0.020518
  776 Fit       0.021385
  777 Fit       0.012468
  778 Fit       0.015669
  779 Fit       0.021138
  780 Fit       0.029916
  781 Fit       0.012660
  782 Fit       0.017179
  783 Fit      -0.020626
  784 Fit      -0.012968
  785 Fit      -0.006789
  786 Fit      -0.013213
  787 Fit      -0.021188
  788 Fit      -0.013392
  789 Fit      -0.004096
  790 Fit      -0.002475
  791 Fit      -0.007834
  792 Fit       0.014524
  793 Fit       0.016471
  794 Fit       0.007743
  795 Fit       0.011502
  796 Fit       0.013582
  797 Fit       0.000219
  798 Fit       0.005780
  799 Fit       0.008625
  800 Fit       0.008861
  801 Fit       0.003479
  802 Fit       0.003998
  803 Fit       0.027498
  804 Fit       0.019370
  805 Fit       0.019929
  806 Fit       0.029522
  807 Fit       0.026036
  808 Fit       0.026116
  809 Fit       0.026450
  810 Fit       0.025176
  811 Fit       0.017001
  812 Fit       0.019271
  813 Fit       0.023526
  814 Fit      -0.004834
  815 Fit      -0.001223
  816 Fit      -0.006591
  817 Fit      -0.002357
  818 Fit       0.000026
  819 Fit       0.003542
  820 Fit       0.002971
  821 Fit       0.007509
  822 Fit      -0.003647
  823 Fit       0.001048
  824 Fit      -0.001646
  825 Fit      -0.009700
  826 Fit      -0.005932
  827 Fit      -0.007124
  828 Fit      -0.014491
  829 Fit      -0.012428
  830 Fit      -0.005603
  831 Fit      -0.000885
  832 Fit      -0.001876
  833 Fit      -0.005951
  834 Fit      -0.009439
  835 Fit       0.003210
  836 Fit      -0.001427
  837 Fit      -0.003374
  838 Fit      -0.007118
  839 Fit      -0.010135
  840 Fit      -0.012610
  841 Fit      -0.008026
  842 Fit       0.001517
  843 Fit       0.001758
  844 Fit       0.009689
  845 Fit       0.006259
  846 Fit       0.020144
  847 Fit      -0.001455
  848 Fit       0.001125
  849 Fit      -0.003619
  850 Fit      -0.009185
  851 Fit      -0.014875
  852 Fit      -0.003999
  853 Fit      -0.008594
  854 Fit      -0.006319
  855 Fit      -0.003216
  856 Fit      -0.002442
  857 Fit      -0.003643
  858 Fit      -0.020345
  859 Fit      -0.015962
  860 Fit      -0.013891
  861 Fit      -0.016011
  862 Fit      -0.014807
  863 Fit      -0.008568
  864 Fit      -0.008425
  865 Fit      -0.012203
  866 Fit      -0.018142
  867 Fit      -0.020043
  868 Fit      -0.014752
  869 Fit      -0.008740
  870 Fit      -0.000451
  871 Fit      -0.009665
  872 Fit      -0.006319
  873 Fit      -0.014994
  874 Fit      -0.001788
  875 Fit      -0.000261
  876 Fit      -0.001284
  877 Fit      -0.002757
  878 Fit       0.005243
  879 Fit       0.003142
  880 Fit       0.001965
  881 Fit       0.001024
  882 Fit       0.000227
  883 Fit       0.000445
  884 Fit      -0.000433
  885 Fit      -0.000559
  886 Fit      -0.002991
  887 Fit      -0.005872
  888 Fit      -0.009742
  889 Fit      -0.009578
  890 Fit      -0.007349
  891 Fit       0.012708
  892 Fit       0.009690
  893 Fit       0.012107
  894 Fit       0.007937
  895 Fit       0.008436
  896 Fit       0.006130
  897 Fit       0.007521
  898 Fit       0.008948
  899 Fit       0.002474
  900 Fit       0.008984
  901 Fit       0.007487
  902 Fit      -0.014785
  903 Fit      -0.009296
  904 Fit      -0.001783
  905 Fit      -0.001043
  906 Fit       0.001170
  907 Fit      -0.004605
  908 Fit      -0.002052
  909 Fit      -0.000213
  910 Fit       0.008814
  911 Fit       0.009995
  912 Fit       0.013952
  913 Fit       0.001474
  914 Fit       0.003102
  915 Fit      -0.003728
  916 Fit       0.000476
  917 Fit      -0.017569
  918 Fit      -0.019208
  919 Fit      -0.023043
  920 Fit      -0.027505
  921 Fit      -0.028658
  922 Fit      -0.027045
  923 Fit      -0.022110
  924 Fit      -0.030445
  925 Fit      -0.033081
  926 Fit      -0.033141
  927 Fit      -0.030598
  928 Fit      -0.025851
  929 Fit      -0.020591
  930 Fit      -0.016433
  931 Fit      -0.028314
  932 Fit      -0.032106
  933 Fit      -0.034563
  934 Fit      -0.034956
  935 Fit      -0.033093
  936 Fit      -0.029544
  937 Fit      -0.025507
  938 Fit      -0.021311
  939 Fit      -0.028269
  940 Fit      -0.033146
  941 Fit      -0.034426
  942 Fit      -0.031896
  943 Fit      -0.027278
  944 Fit      -0.031382
  945 Fit       0.004197
  946 Fit       0.005056
  947 Fit       0.006747
  948 Fit       0.007088
  949 Fit       0.007555
  950 Fit       0.007353
  951 Fit       0.007088
  952 Fit       0.009179
  953 Fit       0.008334
  954 Fit       0.007929
  955 Fit       0.007434
  956 Fit       0.004716
  957 Fit       0.007048
  958 Fit       0.006310
  959 Fit       0.005537
  960 Fit       0.002778
  961 Fit       0.001746
  962 Fit       0.004062
  963 Fit       0.003268
  964 Fit       0.006403
  965 Fit       0.006247
  966 Fit       0.005731
  967 Fit       0.006278
  968 Fit       0.006670
  969 Fit       0.006721
  970 Fit       0.006353
  971 Fit       0.006662
  972 Fit       0.004984
  973 Fit       0.005484
  974 Fit       0.004398
  975 Fit       0.001264
  976 Fit       0.002800
  977 Fit       0.008523
  978 Fit       0.019402
  979 Fit       0.013407
  980 Fit       0.010697
  981 Fit       0.009198
  982 Fit       0.014383
  983 Fit       0.011804
  984 Fit       0.010109
  985 Fit       0.009363
  986 Fit       0.013860
  987 Fit       0.010896
  988 Fit       0.008755
  989 Fit       0.006798
  990 Fit       0.007818
  991 Fit       0.004537
  992 Fit       0.004581
  993 Fit      -0.013003
  994 Fit      -0.020961
  995 Fit       0.004125
  996 Fit       0.002986
  997 Fit       0.001903
  998 Fit       0.002889
  999 Fit       0.002659
 1000 Fit       0.001737
 1001 Fit       0.000387
 1002 Fit       0.001823
 1003 Fit       0.001222
 1004 Fit       0.001466
 1005 Fit       0.000342
 1006 Fit      -0.001498
 1007 Fit      -0.001440
 1008 Fit      -0.001123
 1009 Fit      -0.001108
 1010 Fit      -0.003639
 1011 Fit      -0.005154
 1012 Fit      -0.004158
 1013 Fit      -0.001049
 1014 Fit      -0.002312
 1015 Fit      -0.000584
 1016 Fit      -0.001818
 1017 Fit      -0.004530
 1018 Fit      -0.000790
 1019 Fit      -0.001338
 1020 Fit      -0.003241
 1021 Fit      -0.007709
 1022 Fit      -0.002519
 1023 Fit      -0.004891
 1024 Fit      -0.009847
 1025 Fit      -0.005332
 1026 Fit      -0.008955
 1027 Fit       0.002215
 1028 Fit       0.003648
 1029 Fit       0.003565
 1030 Fit       0.002363
 1031 Fit       0.000369
 1032 Fit      -0.001777
 1033 Fit       0.000979
 1034 Fit       0.004603
 1035 Fit       0.003985
 1036 Fit       0.003291
 1037 Fit       0.002301
 1038 Fit       0.001035
 1039 Fit      -0.000557
 1040 Fit       0.004851
 1041 Fit       0.003432
 1042 Fit       0.002658
 1043 Fit       0.001865
 1044 Fit       0.000908
 1045 Fit       0.010239
 1046 Fit       0.009946
 1047 Fit       0.008628
 1048 Fit       0.008478
 1049 Fit       0.008113
 1050 Fit       0.006849
 1051 Fit       0.006623
 1052 Fit       0.006478
 1053 Fit       0.006586
 1054 Fit       0.003217
 1055 Fit       0.003027
 1056 Fit       0.002900
 1057 Fit       0.002970
 1058 Fit       0.003424
 1059 Fit      -0.004694
 1060 Fit      -0.004478
 1061 Fit      -0.003585
 1062 Fit      -0.002031
 1063 Fit      -0.017635
 1064 Fit       0.007009
 1065 Fit       0.008397
 1066 Fit       0.002538
 1067 Fit       0.004725
 1068 Fit       0.006323
 1069 Fit       0.007357
 1070 Fit      -0.007279
 1071 Fit      -0.001909
 1072 Fit       0.001730
 1073 Fit       0.003924
 1074 Fit       0.005029
 1075 Fit       0.005615
 1076 Fit      -0.020652
 1077 Fit      -0.008397
 1078 Fit      -0.002513
 1079 Fit       0.000097
 1080 Fit       0.000742
 1081 Fit      -0.010696
 1082 Fit       0.013551
 1083 Fit       0.015144
 1084 Fit       0.011163
 1085 Fit       0.012114
 1086 Fit       0.014894
 1087 Fit       0.017439
 1088 Fit       0.017432
 1089 Fit       0.011576
 1090 Fit       0.014200
 1091 Fit       0.018358
 1092 Fit       0.023781
 1093 Fit       0.010882
 1094 Fit       0.013366
 1095 Fit       0.018106
 1096 Fit       0.015151
 1097 Fit      -0.019096
 1098 Fit      -0.012335
 1099 Fit      -0.003990
 1100 Fit      -0.007454
 1101 Fit      -0.012910
 1102 Fit      -0.018565
 1103 Fit      -0.012718
 1104 Fit      -0.005145
 1105 Fit      -0.003779
 1106 Fit      -0.008541
 1107 Fit       0.016449
 1108 Fit       0.010124
 1109 Fit       0.012306
 1110 Fit       0.014344
 1111 Fit       0.002232
 1112 Fit       0.006727
 1113 Fit       0.009113
 1114 Fit       0.010313
 1115 Fit       0.003785
 1116 Fit       0.006059
 1117 Fit       0.005968
 1118 Fit       0.002080
 1119 Fit       0.001924
 1120 Fit       0.002243
 1121 Fit       0.023301
 1122 Fit       0.016946
 1123 Fit       0.017721
 1124 Fit       0.025257
 1125 Fit       0.022036
 1126 Fit       0.023928
 1127 Fit       0.023336
 1128 Fit       0.021505
 1129 Fit       0.014834
 1130 Fit       0.018485
 1131 Fit       0.020229
 1132 Fit       0.021570
 -----------------------------------------------------------------
 Leave Link  602 at Sat Feb 17 20:56:32 2018, MaxMem=   33554432 cpu:       0.4

 Test job not archived.
 1\1\GINC-NODE051\SP\RHF\6-31G(d)\C10H13N1O1\WULSDORT\17-Feb-2018\0\\#H
 F/6-31G* Geom=AllCheck Guess=Read Pop=(MK,ReadRadii) Integral=(Grid=Ul
 traFine) iop(6/33=2)\\Optimization for frag8-conf1\\0,1\C,0,0.92949941
 99,-1.8425789489,-0.0614061902\C,0,0.7057538268,-0.6393484717,0.601854
 5277\C,0,1.9057158374,-2.7289103987,0.4029353619\C,0,2.4212469609,-1.1
 969414962,2.1947546644\C,0,1.4502059677,-0.2998305576,1.7434230133\C,0
 ,2.6599594036,-2.412085151,1.5345946336\C,0,5.784193562,-2.2211052811,
 2.8588449027\C,0,1.1973021179,1.0036474754,2.4660568121\C,0,7.14771957
 6,-1.6714641531,2.4640730019\C,0,3.7340172854,-3.3539355482,2.04708417
 8\N,0,5.0936715769,-2.851034218,1.8589385976\O,0,5.350531462,-2.111279
 6729,4.0007101243\H,0,0.3435014482,-2.0941230675,-0.9418167287\H,0,-0.
 0566638354,0.0455193543,0.236271344\H,0,2.0757563855,-3.6706003092,-0.
 1152198739\H,0,3.0069466591,-0.9589554643,3.0799368848\H,0,0.162229184
 7,1.0679464126,2.8243589243\H,0,1.8573769321,1.1144041203,3.3317091555
 \H,0,1.3618154049,1.8651731428,1.8066461716\H,0,7.135288539,-0.5820926
 236,2.5733329018\H,0,7.8961997273,-2.060159378,3.1605579683\H,0,7.4477
 589866,-1.9221018979,1.441645199\H,0,3.6258839232,-3.5132810063,3.1228
 799992\H,0,3.6511312824,-4.3266248333,1.5488827239\H,0,5.4413891302,-2
 .7790231069,0.9129819565\\Version=AM64L-G09RevC.01\State=1-A\HF=-515.5
 88215\RMSD=3.967e-09\Dipole=0.2637855,0.0128229,-1.4009351\Quadrupole=
 4.2920746,1.8632925,-6.1553671,-1.7155161,-3.4346363,2.9676326\PG=C01 
 [X(C10H13N1O1)]\\@


 THE RARE EARTHS PERPLEX US IN OUR RESEARCHES,
 BAFFLE US IN OUR SPECULATIONS, AND HAUNT US IN OUR
 VERY DREAMS.  THEY STRETCH LIKE AN UNKNOWN BEFORE US,
 MOCKING, MYSTIFYING, AND MURMURING STRANGE REVELATIONS
 AND POSSIBILITIES.  -- SIR WILLIAM CROOKE, 1832-1919
 Job cpu time:  0 days  0 hours  1 minutes 52.2 seconds.
 File lengths (MBytes):  RWF=     27 Int=      0 D2E=      0 Chk=      4 Scr=      1
 Normal termination of Gaussian 09 at Sat Feb 17 20:56:32 2018.
