 Entering Gaussian System, Link 0=g09
 Initial command:
 /home/fb_chem/chemsoft/lx24-amd64/Gaussian_09_C.01_NBO_3.1_64_istanbul-64/g09/l1.exe /local/2397323.1.parallel_long/Gau-8489.inp -scrdir=/local/2397323.1.parallel_long/
 Entering Link 1 = /home/fb_chem/chemsoft/lx24-amd64/Gaussian_09_C.01_NBO_3.1_64_istanbul-64/g09/l1.exe PID=      8490.
  
 Copyright (c) 1988,1990,1992,1993,1995,1998,2003,2009,2011,
            Gaussian, Inc.  All Rights Reserved.
  
 This is part of the Gaussian(R) 09 program.  It is based on
 the Gaussian(R) 03 system (copyright 2003, Gaussian, Inc.),
 the Gaussian(R) 98 system (copyright 1998, Gaussian, Inc.),
 the Gaussian(R) 94 system (copyright 1995, Gaussian, Inc.),
 the Gaussian 92(TM) system (copyright 1992, Gaussian, Inc.),
 the Gaussian 90(TM) system (copyright 1990, Gaussian, Inc.),
 the Gaussian 88(TM) system (copyright 1988, Gaussian, Inc.),
 the Gaussian 86(TM) system (copyright 1986, Carnegie Mellon
 University), and the Gaussian 82(TM) system (copyright 1983,
 Carnegie Mellon University). Gaussian is a federally registered
 trademark of Gaussian, Inc.
  
 This software contains proprietary and confidential information,
 including trade secrets, belonging to Gaussian, Inc.
  
 This software is provided under written license and may be
 used, copied, transmitted, or stored only in accord with that
 written license.
  
 The following legend is applicable only to US Government
 contracts under FAR:
  
                    RESTRICTED RIGHTS LEGEND
  
 Use, reproduction and disclosure by the US Government is
 subject to restrictions as set forth in subparagraphs (a)
 and (c) of the Commercial Computer Software - Restricted
 Rights clause in FAR 52.227-19.
  
 Gaussian, Inc.
 340 Quinnipiac St., Bldg. 40, Wallingford CT 06492
  
  
 ---------------------------------------------------------------
 Warning -- This program may not be used in any manner that
 competes with the business of Gaussian, Inc. or will provide
 assistance to any competitor of Gaussian, Inc.  The licensee
 of this program is prohibited from giving any competitor of
 Gaussian, Inc. access to this program.  By using this program,
 the user acknowledges that Gaussian, Inc. is engaged in the
 business of creating and licensing software in the field of
 computational chemistry and represents and warrants to the
 licensee that it is not a competitor of Gaussian, Inc. and that
 it will not use this program in any manner prohibited above.
 ---------------------------------------------------------------
  

 Cite this work as:
 Gaussian 09, Revision C.01,
 M. J. Frisch, G. W. Trucks, H. B. Schlegel, G. E. Scuseria, 
 M. A. Robb, J. R. Cheeseman, G. Scalmani, V. Barone, B. Mennucci, 
 G. A. Petersson, H. Nakatsuji, M. Caricato, X. Li, H. P. Hratchian, 
 A. F. Izmaylov, J. Bloino, G. Zheng, J. L. Sonnenberg, M. Hada, 
 M. Ehara, K. Toyota, R. Fukuda, J. Hasegawa, M. Ishida, T. Nakajima, 
 Y. Honda, O. Kitao, H. Nakai, T. Vreven, J. A. Montgomery, Jr., 
 J. E. Peralta, F. Ogliaro, M. Bearpark, J. J. Heyd, E. Brothers, 
 K. N. Kudin, V. N. Staroverov, T. Keith, R. Kobayashi, J. Normand, 
 K. Raghavachari, A. Rendell, J. C. Burant, S. S. Iyengar, J. Tomasi, 
 M. Cossi, N. Rega, J. M. Millam, M. Klene, J. E. Knox, J. B. Cross, 
 V. Bakken, C. Adamo, J. Jaramillo, R. Gomperts, R. E. Stratmann, 
 O. Yazyev, A. J. Austin, R. Cammi, C. Pomelli, J. W. Ochterski, 
 R. L. Martin, K. Morokuma, V. G. Zakrzewski, G. A. Voth, 
 P. Salvador, J. J. Dannenberg, S. Dapprich, A. D. Daniels, 
 O. Farkas, J. B. Foresman, J. V. Ortiz, J. Cioslowski, 
 and D. J. Fox, Gaussian, Inc., Wallingford CT, 2010.
 
 ******************************************
 Gaussian 09:  AM64L-G09RevC.01 23-Sep-2011
                16-Feb-2018 
 ******************************************
 %nprocs=4
 Will use up to    4 processors via shared memory.
 %chk=frag9-conf2.chk
 ---------------------------------------------------------
 #B3LYP/6-31G* Integral=(Grid=UltraFine) freq Opt pop=none
 ---------------------------------------------------------
 1/14=-1,18=20,19=15,26=3,38=1/1,3;
 2/9=110,12=2,17=6,18=5,40=1/2;
 3/5=1,6=6,7=1,11=2,16=1,25=1,30=1,71=1,74=-5,75=-5/1,2,3;
 4//1;
 5/5=2,38=5/2;
 7//1,2,3,16;
 1/14=-1,18=20,19=15/3(2);
 2/9=110/2;
 99//99;
 2/9=110/2;
 3/5=1,6=6,7=1,11=2,16=1,25=1,30=1,71=1,74=-5,75=-5/1,2,3;
 4/5=5,16=3/1;
 5/5=2,38=5/2;
 7//1,2,3,16;
 1/14=-1,18=20,19=15/3(-5);
 2/9=110/2;
 99/9=1/99;
 ----------------------------
 Optimization for frag9-conf2
 ----------------------------
 Charge =  0 Multiplicity = 1
 Symbolic Z-Matrix:
 C                     1.99286  -1.06167  -0.10903 
 C                     0.82736  -1.08748   0.65468 
 C                     3.23529  -0.99319   0.51868 
 C                     0.90315  -1.04115   2.04765 
 C                     3.31325  -0.94678   1.91154 
 C                     2.14698  -0.96022   2.68947 
 C                     2.37021  -2.52373   6.07335 
 C                     2.45976  -3.98252   6.42913 
 C                     2.23089  -0.94002   4.19265 
 N                     2.3066   -2.28065   4.72582 
 O                     2.38215  -1.63348   6.92116 
 H                     1.93296  -1.09902  -1.19539 
 H                    -0.14303  -1.14684   0.16457 
 H                     4.14606  -0.97887  -0.07769 
 H                    -0.0159   -1.07001   2.63245 
 H                     4.2917   -0.90127   2.38905 
 H                     3.50818  -4.29179   6.41639 
 H                     2.0453   -4.13917   7.4288 
 H                     1.89388  -4.59312   5.71983 
 H                     3.11332  -0.38118   4.52625 
 H                     1.3565   -0.4392    4.62501 
 H                     2.32167  -3.06249   4.07669 
 

 GradGradGradGradGradGradGradGradGradGradGradGradGradGradGradGradGradGrad
 Berny optimization.
 Initialization pass.
                           ----------------------------
                           !    Initial Parameters    !
                           ! (Angstroms and Degrees)  !
 --------------------------                            --------------------------
 ! Name  Definition              Value          Derivative Info.                !
 --------------------------------------------------------------------------------
 ! R1    R(1,2)                  1.3937         estimate D2E/DX2                !
 ! R2    R(1,3)                  1.3937         estimate D2E/DX2                !
 ! R3    R(1,12)                 1.0887         estimate D2E/DX2                !
 ! R4    R(2,4)                  1.3958         estimate D2E/DX2                !
 ! R5    R(2,13)                 1.0887         estimate D2E/DX2                !
 ! R6    R(3,5)                  1.3958         estimate D2E/DX2                !
 ! R7    R(3,14)                 1.0887         estimate D2E/DX2                !
 ! R8    R(4,6)                  1.402          estimate D2E/DX2                !
 ! R9    R(4,15)                 1.0897         estimate D2E/DX2                !
 ! R10   R(5,6)                  1.402          estimate D2E/DX2                !
 ! R11   R(5,16)                 1.0897         estimate D2E/DX2                !
 ! R12   R(6,9)                  1.5057         estimate D2E/DX2                !
 ! R13   R(7,8)                  1.5042         estimate D2E/DX2                !
 ! R14   R(7,10)                 1.3708         estimate D2E/DX2                !
 ! R15   R(7,11)                 1.2294         estimate D2E/DX2                !
 ! R16   R(8,17)                 1.0932         estimate D2E/DX2                !
 ! R17   R(8,18)                 1.0935         estimate D2E/DX2                !
 ! R18   R(8,19)                 1.0937         estimate D2E/DX2                !
 ! R19   R(9,10)                 1.4448         estimate D2E/DX2                !
 ! R20   R(9,20)                 1.0965         estimate D2E/DX2                !
 ! R21   R(9,21)                 1.0965         estimate D2E/DX2                !
 ! R22   R(10,22)                1.0163         estimate D2E/DX2                !
 ! A1    A(2,1,3)              119.9754         estimate D2E/DX2                !
 ! A2    A(2,1,12)             120.0121         estimate D2E/DX2                !
 ! A3    A(3,1,12)             120.012          estimate D2E/DX2                !
 ! A4    A(1,2,4)              120.0561         estimate D2E/DX2                !
 ! A5    A(1,2,13)             119.98           estimate D2E/DX2                !
 ! A6    A(4,2,13)             119.9636         estimate D2E/DX2                !
 ! A7    A(1,3,5)              120.0575         estimate D2E/DX2                !
 ! A8    A(1,3,14)             119.9791         estimate D2E/DX2                !
 ! A9    A(5,3,14)             119.9631         estimate D2E/DX2                !
 ! A10   A(2,4,6)              120.4608         estimate D2E/DX2                !
 ! A11   A(2,4,15)             119.268          estimate D2E/DX2                !
 ! A12   A(6,4,15)             120.2711         estimate D2E/DX2                !
 ! A13   A(3,5,6)              120.4592         estimate D2E/DX2                !
 ! A14   A(3,5,16)             119.2624         estimate D2E/DX2                !
 ! A15   A(6,5,16)             120.2784         estimate D2E/DX2                !
 ! A16   A(4,6,5)              118.984          estimate D2E/DX2                !
 ! A17   A(4,6,9)              120.481          estimate D2E/DX2                !
 ! A18   A(5,6,9)              120.4959         estimate D2E/DX2                !
 ! A19   A(8,7,10)             114.0326         estimate D2E/DX2                !
 ! A20   A(8,7,11)             122.5868         estimate D2E/DX2                !
 ! A21   A(10,7,11)            123.3636         estimate D2E/DX2                !
 ! A22   A(7,8,17)             109.1905         estimate D2E/DX2                !
 ! A23   A(7,8,18)             109.4269         estimate D2E/DX2                !
 ! A24   A(7,8,19)             110.9311         estimate D2E/DX2                !
 ! A25   A(17,8,18)            109.4905         estimate D2E/DX2                !
 ! A26   A(17,8,19)            109.3125         estimate D2E/DX2                !
 ! A27   A(18,8,19)            108.4698         estimate D2E/DX2                !
 ! A28   A(6,9,10)             111.0334         estimate D2E/DX2                !
 ! A29   A(6,9,20)             110.82           estimate D2E/DX2                !
 ! A30   A(6,9,21)             110.8146         estimate D2E/DX2                !
 ! A31   A(10,9,20)            108.5707         estimate D2E/DX2                !
 ! A32   A(10,9,21)            108.6691         estimate D2E/DX2                !
 ! A33   A(20,9,21)            106.7989         estimate D2E/DX2                !
 ! A34   A(7,10,9)             121.9905         estimate D2E/DX2                !
 ! A35   A(7,10,22)            119.3925         estimate D2E/DX2                !
 ! A36   A(9,10,22)            118.6144         estimate D2E/DX2                !
 ! D1    D(3,1,2,4)              0.1737         estimate D2E/DX2                !
 ! D2    D(3,1,2,13)          -179.6432         estimate D2E/DX2                !
 ! D3    D(12,1,2,4)           179.928          estimate D2E/DX2                !
 ! D4    D(12,1,2,13)            0.1111         estimate D2E/DX2                !
 ! D5    D(2,1,3,5)             -0.1737         estimate D2E/DX2                !
 ! D6    D(2,1,3,14)           179.6444         estimate D2E/DX2                !
 ! D7    D(12,1,3,5)          -179.928          estimate D2E/DX2                !
 ! D8    D(12,1,3,14)           -0.1099         estimate D2E/DX2                !
 ! D9    D(1,2,4,6)              0.393          estimate D2E/DX2                !
 ! D10   D(1,2,4,15)          -179.5206         estimate D2E/DX2                !
 ! D11   D(13,2,4,6)          -179.7902         estimate D2E/DX2                !
 ! D12   D(13,2,4,15)            0.2963         estimate D2E/DX2                !
 ! D13   D(1,3,5,6)             -0.393          estimate D2E/DX2                !
 ! D14   D(1,3,5,16)           179.5249         estimate D2E/DX2                !
 ! D15   D(14,3,5,6)           179.7889         estimate D2E/DX2                !
 ! D16   D(14,3,5,16)           -0.2933         estimate D2E/DX2                !
 ! D17   D(2,4,6,5)             -0.9452         estimate D2E/DX2                !
 ! D18   D(2,4,6,9)           -178.6817         estimate D2E/DX2                !
 ! D19   D(15,4,6,5)           178.9674         estimate D2E/DX2                !
 ! D20   D(15,4,6,9)             1.2309         estimate D2E/DX2                !
 ! D21   D(3,5,6,4)              0.9452         estimate D2E/DX2                !
 ! D22   D(3,5,6,9)            178.6814         estimate D2E/DX2                !
 ! D23   D(16,5,6,4)          -178.9718         estimate D2E/DX2                !
 ! D24   D(16,5,6,9)            -1.2356         estimate D2E/DX2                !
 ! D25   D(4,6,9,10)            88.5618         estimate D2E/DX2                !
 ! D26   D(4,6,9,20)          -150.6897         estimate D2E/DX2                !
 ! D27   D(4,6,9,21)           -32.3075         estimate D2E/DX2                !
 ! D28   D(5,6,9,10)           -89.1403         estimate D2E/DX2                !
 ! D29   D(5,6,9,20)            31.6082         estimate D2E/DX2                !
 ! D30   D(5,6,9,21)           149.9904         estimate D2E/DX2                !
 ! D31   D(10,7,8,17)           86.6337         estimate D2E/DX2                !
 ! D32   D(10,7,8,18)         -153.5407         estimate D2E/DX2                !
 ! D33   D(10,7,8,19)          -33.8999         estimate D2E/DX2                !
 ! D34   D(11,7,8,17)          -91.9129         estimate D2E/DX2                !
 ! D35   D(11,7,8,18)           27.9127         estimate D2E/DX2                !
 ! D36   D(11,7,8,19)          147.5535         estimate D2E/DX2                !
 ! D37   D(8,7,10,9)          -179.3293         estimate D2E/DX2                !
 ! D38   D(8,7,10,22)            0.0765         estimate D2E/DX2                !
 ! D39   D(11,7,10,9)           -0.7956         estimate D2E/DX2                !
 ! D40   D(11,7,10,22)         178.6102         estimate D2E/DX2                !
 ! D41   D(6,9,10,7)          -178.991          estimate D2E/DX2                !
 ! D42   D(6,9,10,22)            1.5987         estimate D2E/DX2                !
 ! D43   D(20,9,10,7)           58.9418         estimate D2E/DX2                !
 ! D44   D(20,9,10,22)        -120.4685         estimate D2E/DX2                !
 ! D45   D(21,9,10,7)          -56.8651         estimate D2E/DX2                !
 ! D46   D(21,9,10,22)         123.7246         estimate D2E/DX2                !
 --------------------------------------------------------------------------------
 Trust Radius=3.00D-01 FncErr=1.00D-07 GrdErr=1.00D-06
 Number of steps in this run=    114 maximum allowed number of steps=    132.
 GradGradGradGradGradGradGradGradGradGradGradGradGradGradGradGradGradGrad

                          Input orientation:                          
 ---------------------------------------------------------------------
 Center     Atomic      Atomic             Coordinates (Angstroms)
 Number     Number       Type             X           Y           Z
 ---------------------------------------------------------------------
      1          6           0        1.992860   -1.061669   -0.109027
      2          6           0        0.827356   -1.087481    0.654679
      3          6           0        3.235285   -0.993194    0.518679
      4          6           0        0.903147   -1.041152    2.047653
      5          6           0        3.313246   -0.946781    1.911539
      6          6           0        2.146975   -0.960217    2.689467
      7          6           0        2.370214   -2.523735    6.073349
      8          6           0        2.459761   -3.982516    6.429127
      9          6           0        2.230887   -0.940021    4.192647
     10          7           0        2.306602   -2.280653    4.725825
     11          8           0        2.382145   -1.633475    6.921157
     12          1           0        1.932965   -1.099020   -1.195390
     13          1           0       -0.143026   -1.146839    0.164572
     14          1           0        4.146058   -0.978872   -0.077695
     15          1           0       -0.015897   -1.070010    2.632454
     16          1           0        4.291702   -0.901271    2.389045
     17          1           0        3.508185   -4.291789    6.416386
     18          1           0        2.045295   -4.139166    7.428800
     19          1           0        1.893876   -4.593125    5.719831
     20          1           0        3.113322   -0.381185    4.526247
     21          1           0        1.356495   -0.439198    4.625008
     22          1           0        2.321669   -3.062492    4.076685
 ---------------------------------------------------------------------
                    Distance matrix (angstroms):
                    1          2          3          4          5
     1  C    0.000000
     2  C    1.393669   0.000000
     3  C    1.393673   2.413609   0.000000
     4  C    2.416436   1.395804   2.789073   0.000000
     5  C    2.416465   2.789111   1.395812   2.415783   0.000000
     6  C    2.804570   2.428570   2.428544   1.401993   1.401977
     7  C    6.364102   5.814226   5.826256   4.533935   4.549369
     8  C    7.176127   6.662599   6.668649   5.501998   5.509331
     9  C    4.309971   3.809050   3.809158   2.524702   2.524876
    10  N    4.996013   4.492890   4.496674   3.267821   3.273034
    11  O    7.064134   6.479524   6.490727   5.127312   5.141476
    12  H    1.088654   2.155286   2.155289   3.403116   3.403139
    13  H    2.155021   1.088746   3.400292   2.156766   3.877851
    14  H    2.155017   3.400287   1.088749   3.877815   2.156770
    15  H    3.398660   2.150110   3.878676   1.089709   3.408532
    16  H    3.398642   3.878710   2.150055   3.408580   1.089706
    17  H    7.437129   7.117001   6.762998   6.036446   5.614332
    18  H    8.142025   7.528936   7.685245   6.313393   6.499169
    19  H    6.815904   6.251621   6.466131   5.204127   5.460176
    20  H    4.817079   4.551212   4.055863   3.385832   2.682641
    21  H    4.817003   4.057557   4.549583   2.685262   3.383700
    22  H    4.650978   4.224188   4.216171   3.196090   3.185486
                    6          7          8          9         10
     6  C    0.000000
     7  C    3.734311   0.000000
     8  C    4.818421   1.504207   0.000000
     9  C    1.505656   2.462641   3.782989   0.000000
    10  N    2.432239   1.370750   2.412682   1.444751   0.000000
    11  O    4.291362   1.229424   2.401272   2.819313   2.289985
    12  H    3.893222   7.419943   8.168557   5.398609   6.049516
    13  H    3.413799   6.567028   7.352565   4.680131   5.300117
    14  H    3.413776   6.586013   7.362351   4.680300   5.305849
    15  H    2.166407   4.432449   5.387606   2.738455   3.352888
    16  H    2.166467   4.460784   5.401143   2.738875   3.362120
    17  H    5.180945   2.130415   1.093163   4.220291   2.889025
    18  H    5.707656   2.133645   1.093466   4.554302   3.290658
    19  H    4.737635   2.152731   1.093696   3.973794   2.550670
    20  H    2.154731   2.745224   4.125250   1.096484   2.073308
    21  H    2.154678   2.733242   4.126396   1.096504   2.074566
    22  H    2.524768   2.068642   2.529722   2.127575   1.016308
                   11         12         13         14         15
    11  O    0.000000
    12  H    8.146517   0.000000
    13  H    7.229436   2.482241   0.000000
    14  H    7.247332   2.482228   4.299202   0.000000
    15  H    4.945814   4.295496   2.472348   4.967401   0.000000
    16  H    4.972180   4.295453   4.967433   2.472254   4.317769
    17  H    2.930766   8.403227   7.893493   7.318155   6.092385
    18  H    2.578693   9.145040   8.155475   8.411191   6.055838
    19  H    3.231272   7.747939   6.847390   7.193500   5.058801
    20  H    2.799723   5.886056   5.496747   4.756054   3.721954
    21  H    2.783982   5.885976   4.758656   5.494390   2.500332
    22  H    3.183829   5.639245   5.004905   4.992869   3.394113
                   16         17         18         19         20
    16  H    0.000000
    17  H    5.322498   0.000000
    18  H    6.397612   1.785587   0.000000
    19  H    5.520279   1.783812   1.774706   0.000000
    20  H    2.495335   4.361349   4.867024   4.544462   0.000000
    21  H    3.718666   4.762485   4.693129   4.329264   1.760557
    22  H    3.376394   2.897100   3.531612   2.285994   2.831648
                   21         22
    21  H    0.000000
    22  H    2.848489   0.000000
 Stoichiometry    C9H11NO
 Framework group  C1[X(C9H11NO)]
 Deg. of freedom    60
 Full point group                 C1      NOp   1
 Largest Abelian subgroup         C1      NOp   1
 Largest concise Abelian subgroup C1      NOp   1
                         Standard orientation:                         
 ---------------------------------------------------------------------
 Center     Atomic      Atomic             Coordinates (Angstroms)
 Number     Number       Type             X           Y           Z
 ---------------------------------------------------------------------
      1          6           0        3.530371   -0.005675    0.460602
      2          6           0        2.865594   -1.210338    0.238858
      3          6           0        2.875155    1.203247    0.233613
      4          6           0        1.545251   -1.207159   -0.213858
      5          6           0        1.554813    1.208600   -0.219110
      6          6           0        0.880132    0.002859   -0.456879
      7          6           0       -2.820187   -0.010427    0.045653
      8          6           0       -3.592078    0.007739    1.336581
      9          6           0       -0.553521    0.007343   -0.916899
     10          7           0       -1.459271    0.006499    0.208677
     11          8           0       -3.369421   -0.011732   -1.054267
     12          1           0        4.559781   -0.008983    0.814821
     13          1           0        3.375474   -2.154771    0.421715
     14          1           0        3.392531    2.144388    0.412358
     15          1           0        1.035173   -2.156459   -0.375463
     16          1           0        1.052408    2.161265   -0.384876
     17          1           0       -3.734780    1.043600    1.655378
     18          1           0       -4.566417   -0.464675    1.184416
     19          1           0       -3.059180   -0.541119    2.118212
     20          1           0       -0.762490    0.890233   -1.532621
     21          1           0       -0.765870   -0.870309   -1.538958
     22          1           0       -1.069548    0.028061    1.147044
 ---------------------------------------------------------------------
 Rotational constants (GHZ):      3.0599494      0.4830943      0.4746767
 Standard basis: 6-31G(d) (6D, 7F)
 There are   187 symmetry adapted basis functions of A   symmetry.
 Integral buffers will be    131072 words long.
 Raffenetti 2 integral format.
 Two-electron integral symmetry is turned on.
   187 basis functions,   352 primitive gaussians,   187 cartesian basis functions
    40 alpha electrons       40 beta electrons
       nuclear repulsion energy       560.2196485050 Hartrees.
 NAtoms=   22 NActive=   22 NUniq=   22 SFac= 1.00D+00 NAtFMM=   60 NAOKFM=F Big=F
 One-electron integrals computed using PRISM.
 NBasis=   187 RedAO= T  NBF=   187
 NBsUse=   187 1.00D-06 NBFU=   187
 Harris functional with IExCor=  402 diagonalized for initial guess.
 ExpMin= 1.61D-01 ExpMax= 5.48D+03 ExpMxC= 8.25D+02 IAcc=3 IRadAn=         5 AccDes= 0.00D+00
 HarFok:  IExCor=  402 AccDes= 0.00D+00 IRadAn=         5 IDoV= 1
 ScaDFX=  1.000000  1.000000  1.000000  1.000000
 FoFCou: FMM=F IPFlag=           0 FMFlag=      100000 FMFlg1=           0
         NFxFlg=           0 DoJE=T BraDBF=F KetDBF=T FulRan=T
         Omega=  0.000000  0.000000  1.000000  0.000000  0.000000 ICntrl=     500 IOpCl=  0
         NMat0=    1 NMatS0=    1 NMatT0=    0 NMatD0=    1 NMtDS0=    0 NMtDT0=    0
         I1Cent=           4 NGrid=           0.
 Petite list used in FoFCou.
 Initial guess orbital symmetries:
       Occupied  (A) (A) (A) (A) (A) (A) (A) (A) (A) (A) (A) (A)
                 (A) (A) (A) (A) (A) (A) (A) (A) (A) (A) (A) (A)
                 (A) (A) (A) (A) (A) (A) (A) (A) (A) (A) (A) (A)
                 (A) (A) (A) (A)
       Virtual   (A) (A) (A) (A) (A) (A) (A) (A) (A) (A) (A) (A)
                 (A) (A) (A) (A) (A) (A) (A) (A) (A) (A) (A) (A)
                 (A) (A) (A) (A) (A) (A) (A) (A) (A) (A) (A) (A)
                 (A) (A) (A) (A) (A) (A) (A) (A) (A) (A) (A) (A)
                 (A) (A) (A) (A) (A) (A) (A) (A) (A) (A) (A) (A)
                 (A) (A) (A) (A) (A) (A) (A) (A) (A) (A) (A) (A)
                 (A) (A) (A) (A) (A) (A) (A) (A) (A) (A) (A) (A)
                 (A) (A) (A) (A) (A) (A) (A) (A) (A) (A) (A) (A)
                 (A) (A) (A) (A) (A) (A) (A) (A) (A) (A) (A) (A)
                 (A) (A) (A) (A) (A) (A) (A) (A) (A) (A) (A) (A)
                 (A) (A) (A) (A) (A) (A) (A) (A) (A) (A) (A) (A)
                 (A) (A) (A) (A) (A) (A) (A) (A) (A) (A) (A) (A)
                 (A) (A) (A)
 The electronic state of the initial guess is 1-A.
 Requested convergence on RMS density matrix=1.00D-08 within 128 cycles.
 Requested convergence on MAX density matrix=1.00D-06.
 Requested convergence on             energy=1.00D-06.
 No special actions if energy rises.
 Integral accuracy reduced to 1.0D-05 until final iterations.
 Initial convergence to 1.0D-05 achieved.  Increase integral accuracy.
 SCF Done:  E(RB3LYP) =  -479.573227289     A.U. after   15 cycles
             Convg  =    0.3319D-08             -V/T =  2.0096
 Calling FoFJK, ICntrl=      2127 FMM=F ISym2X=0 I1Cent= 0 IOpClX= 0 NMat=1 NMatS=1 NMatT=0.
 ***** Axes restored to original set *****
 -------------------------------------------------------------------
 Center     Atomic                   Forces (Hartrees/Bohr)
 Number     Number              X              Y              Z
 -------------------------------------------------------------------
      1        6          -0.000177791   -0.000242515   -0.004179087
      2        6          -0.002372866   -0.000577452    0.000467518
      3        6           0.002416208   -0.000405934    0.000091083
      4        6          -0.000448776    0.000056818   -0.001784567
      5        6           0.000183072    0.000094897   -0.001776415
      6        6          -0.000049089   -0.000936787   -0.001570136
      7        6          -0.000029152    0.008723294    0.001408313
      8        6          -0.004192285   -0.006429243    0.002126424
      9        6           0.000953443    0.008833174    0.001081360
     10        7          -0.000346773   -0.012841912    0.004823594
     11        8          -0.000814239   -0.001173887   -0.008474380
     12        1           0.000058952    0.000257874    0.001176340
     13        1           0.001022264    0.000241619    0.000841639
     14        1          -0.000937384    0.000161915    0.000950621
     15        1           0.002187319    0.000812922    0.000723510
     16        1          -0.002129209    0.000676978    0.000974547
     17        1           0.001094682   -0.002965775    0.001183985
     18        1           0.002596036    0.000642082   -0.000369134
     19        1           0.001627851   -0.003470076   -0.000594199
     20        1          -0.000213056    0.002159890   -0.000368701
     21        1           0.000148995    0.001353410   -0.000060018
     22        1          -0.000578201    0.005028708    0.003327703
 -------------------------------------------------------------------
 Cartesian Forces:  Max     0.012841912 RMS     0.003058936

 GradGradGradGradGradGradGradGradGradGradGradGradGradGradGradGradGradGrad
 Berny optimization.
 Internal  Forces:  Max     0.012818967 RMS     0.002594501
 Search for a local minimum.
 Step number   1 out of a maximum of  114
 All quantities printed in internal units (Hartrees-Bohrs-Radians)
 Mixed Optimization -- RFO/linear search
 Second derivative matrix not updated -- first step.
 ITU=  0
     Eigenvalues ---    0.00691   0.00710   0.01100   0.01265   0.01495
     Eigenvalues ---    0.01513   0.02073   0.02079   0.02100   0.02107
     Eigenvalues ---    0.02134   0.02156   0.02159   0.02165   0.02173
     Eigenvalues ---    0.05242   0.06602   0.07348   0.07512   0.09877
     Eigenvalues ---    0.13186   0.15999   0.16000   0.16000   0.16000
     Eigenvalues ---    0.16000   0.16000   0.16000   0.16000   0.16000
     Eigenvalues ---    0.21947   0.21999   0.22000   0.22000   0.23468
     Eigenvalues ---    0.24979   0.24992   0.25000   0.31791   0.31940
     Eigenvalues ---    0.34072   0.34074   0.34389   0.34415   0.34450
     Eigenvalues ---    0.34846   0.34847   0.34958   0.34958   0.34969
     Eigenvalues ---    0.38941   0.41845   0.41870   0.44932   0.45515
     Eigenvalues ---    0.46083   0.46322   0.46620   0.50833   0.91327
 RFO step:  Lambda=-2.52924155D-03 EMin= 6.91135456D-03
 Linear search not attempted -- first point.
 Iteration  1 RMS(Cart)=  0.03471605 RMS(Int)=  0.00057558
 Iteration  2 RMS(Cart)=  0.00079185 RMS(Int)=  0.00004633
 Iteration  3 RMS(Cart)=  0.00000042 RMS(Int)=  0.00004633
 Variable       Old X    -DE/DX   Delta X   Delta X   Delta X     New X
                                 (Linear)    (Quad)   (Total)
    R1        2.63365   0.00200   0.00000   0.00463   0.00464   2.63829
    R2        2.63366   0.00193   0.00000   0.00449   0.00450   2.63816
    R3        2.05726  -0.00119   0.00000  -0.00337  -0.00337   2.05389
    R4        2.63769   0.00030   0.00000   0.00065   0.00065   2.63834
    R5        2.05743  -0.00130   0.00000  -0.00370  -0.00370   2.05373
    R6        2.63770   0.00036   0.00000   0.00079   0.00079   2.63849
    R7        2.05744  -0.00130   0.00000  -0.00370  -0.00370   2.05374
    R8        2.64938  -0.00095   0.00000  -0.00246  -0.00247   2.64691
    R9        2.05925  -0.00148   0.00000  -0.00421  -0.00421   2.05504
   R10        2.64935  -0.00096   0.00000  -0.00248  -0.00248   2.64687
   R11        2.05925  -0.00146   0.00000  -0.00415  -0.00415   2.05510
   R12        2.84528   0.00409   0.00000   0.01277   0.01277   2.85804
   R13        2.84254   0.01248   0.00000   0.03875   0.03875   2.88129
   R14        2.59034  -0.00380   0.00000  -0.00743  -0.00743   2.58291
   R15        2.32327  -0.00670   0.00000  -0.00732  -0.00732   2.31596
   R16        2.06578   0.00188   0.00000   0.00540   0.00540   2.07118
   R17        2.06635  -0.00141   0.00000  -0.00408  -0.00408   2.06227
   R18        2.06679   0.00148   0.00000   0.00427   0.00427   2.07106
   R19        2.73018   0.01282   0.00000   0.03271   0.03271   2.76289
   R20        2.07206   0.00082   0.00000   0.00238   0.00238   2.07444
   R21        2.07209   0.00048   0.00000   0.00139   0.00139   2.07348
   R22        1.92054  -0.00600   0.00000  -0.01328  -0.01328   1.90726
    A1        2.09397  -0.00140   0.00000  -0.00480  -0.00481   2.08916
    A2        2.09461   0.00070   0.00000   0.00244   0.00241   2.09702
    A3        2.09460   0.00070   0.00000   0.00241   0.00238   2.09699
    A4        2.09537  -0.00014   0.00000   0.00005   0.00004   2.09542
    A5        2.09405   0.00037   0.00000   0.00184   0.00182   2.09587
    A6        2.09376  -0.00023   0.00000  -0.00186  -0.00188   2.09188
    A7        2.09540  -0.00016   0.00000  -0.00005  -0.00006   2.09534
    A8        2.09403   0.00038   0.00000   0.00187   0.00186   2.09589
    A9        2.09375  -0.00022   0.00000  -0.00180  -0.00182   2.09193
   A10        2.10244   0.00132   0.00000   0.00502   0.00500   2.10744
   A11        2.08162   0.00122   0.00000   0.00904   0.00904   2.09065
   A12        2.09913  -0.00254   0.00000  -0.01405  -0.01405   2.08507
   A13        2.10241   0.00133   0.00000   0.00510   0.00508   2.10749
   A14        2.08152   0.00121   0.00000   0.00898   0.00898   2.09050
   A15        2.09925  -0.00254   0.00000  -0.01407  -0.01408   2.08518
   A16        2.07666  -0.00095   0.00000  -0.00509  -0.00514   2.07153
   A17        2.10279   0.00047   0.00000   0.00274   0.00272   2.10551
   A18        2.10305   0.00049   0.00000   0.00283   0.00281   2.10586
   A19        1.99024   0.00692   0.00000   0.02736   0.02736   2.01760
   A20        2.13954   0.00276   0.00000   0.01090   0.01090   2.15044
   A21        2.15310  -0.00968   0.00000  -0.03836  -0.03836   2.11474
   A22        1.90573   0.00272   0.00000   0.01269   0.01255   1.91829
   A23        1.90986  -0.00140   0.00000  -0.00924  -0.00930   1.90056
   A24        1.93611   0.00444   0.00000   0.03199   0.03180   1.96792
   A25        1.91097  -0.00242   0.00000  -0.02443  -0.02443   1.88654
   A26        1.90786  -0.00340   0.00000  -0.01957  -0.01981   1.88805
   A27        1.89316  -0.00004   0.00000   0.00773   0.00762   1.90077
   A28        1.93790  -0.00113   0.00000  -0.00298  -0.00297   1.93493
   A29        1.93417  -0.00053   0.00000  -0.00514  -0.00517   1.92901
   A30        1.93408  -0.00008   0.00000  -0.00456  -0.00458   1.92950
   A31        1.89492   0.00184   0.00000   0.01688   0.01687   1.91178
   A32        1.89663   0.00088   0.00000   0.00679   0.00678   1.90341
   A33        1.86399  -0.00089   0.00000  -0.01058  -0.01068   1.85332
   A34        2.12914  -0.00123   0.00000  -0.00556  -0.00557   2.12356
   A35        2.08379   0.00127   0.00000   0.00677   0.00676   2.09055
   A36        2.07021  -0.00004   0.00000  -0.00129  -0.00130   2.06891
    D1        0.00303  -0.00005   0.00000  -0.00248  -0.00250   0.00053
    D2       -3.13536  -0.00028   0.00000  -0.01241  -0.01245   3.13537
    D3        3.14034   0.00021   0.00000   0.00894   0.00895  -3.13390
    D4        0.00194  -0.00002   0.00000  -0.00099  -0.00100   0.00094
    D5       -0.00303   0.00005   0.00000   0.00236   0.00238  -0.00065
    D6        3.13539   0.00028   0.00000   0.01254   0.01259  -3.13521
    D7       -3.14034  -0.00021   0.00000  -0.00906  -0.00907   3.13378
    D8       -0.00192   0.00002   0.00000   0.00112   0.00113  -0.00078
    D9        0.00686  -0.00014   0.00000  -0.00660  -0.00662   0.00024
   D10       -3.13322  -0.00033   0.00000  -0.01431  -0.01437   3.13559
   D11       -3.13793   0.00009   0.00000   0.00333   0.00332  -3.13461
   D12        0.00517  -0.00009   0.00000  -0.00438  -0.00443   0.00074
   D13       -0.00686   0.00014   0.00000   0.00684   0.00686   0.00000
   D14        3.13330   0.00034   0.00000   0.01506   0.01512  -3.13477
   D15        3.13791  -0.00009   0.00000  -0.00334  -0.00333   3.13458
   D16       -0.00512   0.00011   0.00000   0.00488   0.00493  -0.00019
   D17       -0.01650   0.00033   0.00000   0.01563   0.01563  -0.00087
   D18       -3.11858   0.00007   0.00000   0.00184   0.00188  -3.11671
   D19        3.12357   0.00053   0.00000   0.02344   0.02337  -3.13625
   D20        0.02148   0.00027   0.00000   0.00964   0.00962   0.03110
   D21        0.01650  -0.00034   0.00000  -0.01575  -0.01575   0.00075
   D22        3.11858  -0.00008   0.00000  -0.00196  -0.00200   3.11658
   D23       -3.12365  -0.00054   0.00000  -0.02407  -0.02399   3.13554
   D24       -0.02157  -0.00028   0.00000  -0.01028  -0.01024  -0.03181
   D25        1.54569  -0.00021   0.00000   0.00068   0.00069   1.54639
   D26       -2.63003   0.00100   0.00000   0.01655   0.01653  -2.61350
   D27       -0.56387  -0.00050   0.00000  -0.00282  -0.00280  -0.56667
   D28       -1.55579  -0.00044   0.00000  -0.01315  -0.01315  -1.56894
   D29        0.55167   0.00077   0.00000   0.00272   0.00269   0.55435
   D30        2.61783  -0.00074   0.00000  -0.01665  -0.01664   2.60119
   D31        1.51204   0.00081   0.00000   0.01448   0.01455   1.52660
   D32       -2.67979  -0.00134   0.00000  -0.01321  -0.01327  -2.69306
   D33       -0.59166   0.00048   0.00000   0.01039   0.01031  -0.58135
   D34       -1.60418   0.00096   0.00000   0.01903   0.01915  -1.58504
   D35        0.48717  -0.00119   0.00000  -0.00866  -0.00868   0.47849
   D36        2.57529   0.00063   0.00000   0.01494   0.01491   2.59020
   D37       -3.12989   0.00066   0.00000   0.03258   0.03256  -3.09732
   D38        0.00133   0.00049   0.00000   0.02305   0.02301   0.02434
   D39       -0.01389   0.00072   0.00000   0.02882   0.02886   0.01498
   D40        3.11734   0.00055   0.00000   0.01928   0.01930   3.13664
   D41       -3.12398  -0.00004   0.00000  -0.00158  -0.00156  -3.12554
   D42        0.02790   0.00012   0.00000   0.00784   0.00784   0.03574
   D43        1.02873   0.00012   0.00000  -0.00447  -0.00445   1.02428
   D44       -2.10257   0.00028   0.00000   0.00494   0.00495  -2.09763
   D45       -0.99248  -0.00028   0.00000  -0.00466  -0.00467  -0.99716
   D46        2.15940  -0.00012   0.00000   0.00475   0.00472   2.16412
         Item               Value     Threshold  Converged?
 Maximum Force            0.012819     0.000450     NO 
 RMS     Force            0.002595     0.000300     NO 
 Maximum Displacement     0.163424     0.001800     NO 
 RMS     Displacement     0.034993     0.001200     NO 
 Predicted change in Energy=-1.286238D-03
 GradGradGradGradGradGradGradGradGradGradGradGradGradGradGradGradGradGrad

                          Input orientation:                          
 ---------------------------------------------------------------------
 Center     Atomic      Atomic             Coordinates (Angstroms)
 Number     Number       Type             X           Y           Z
 ---------------------------------------------------------------------
      1          6           0        1.991620   -1.054152   -0.127930
      2          6           0        0.825739   -1.070525    0.639936
      3          6           0        3.235036   -0.991708    0.503721
      4          6           0        0.905193   -1.023944    2.033043
      5          6           0        3.309933   -0.945131    1.897160
      6          6           0        2.147049   -0.960214    2.677756
      7          6           0        2.352754   -2.542478    6.066176
      8          6           0        2.470361   -4.008530    6.468190
      9          6           0        2.231525   -0.942200    4.187699
     10          7           0        2.290753   -2.301786    4.722147
     11          8           0        2.345272   -1.622824    6.876210
     12          1           0        1.931271   -1.083131   -1.212738
     13          1           0       -0.145701   -1.113197    0.154559
     14          1           0        4.146378   -0.972641   -0.088061
     15          1           0       -0.005957   -1.031276    2.626648
     16          1           0        4.280675   -0.890123    2.384307
     17          1           0        3.524891   -4.306562    6.488419
     18          1           0        2.063668   -4.133094    7.473196
     19          1           0        1.938479   -4.679605    5.784171
     20          1           0        3.114643   -0.379478    4.517075
     21          1           0        1.362915   -0.426421    4.615971
     22          1           0        2.302628   -3.074838    4.073385
 ---------------------------------------------------------------------
                    Distance matrix (angstroms):
                    1          2          3          4          5
     1  C    0.000000
     2  C    1.396125   0.000000
     3  C    1.396053   2.414431   0.000000
     4  C    2.418892   1.396148   2.787119   0.000000
     5  C    2.418847   2.787034   1.396228   2.409865   0.000000
     6  C    2.811557   2.431201   2.431283   1.400687   1.400663
     7  C    6.380633   5.826019   5.841593   4.546157   4.566005
     8  C    7.243365   6.730913   6.727617   5.570281   5.566291
     9  C    4.323741   3.818288   3.818530   2.531478   2.531706
    10  N    5.016903   4.508516   4.516978   3.283891   3.295419
    11  O    7.036081   6.442448   6.465184   5.088099   5.116716
    12  H    1.086872   2.157489   2.157404   3.404620   3.404588
    13  H    2.156717   1.086788   3.400890   2.154309   3.873798
    14  H    2.156668   3.400912   1.086791   3.873886   2.154414
    15  H    3.402724   2.154131   3.874586   1.087481   3.396277
    16  H    3.402648   3.874527   2.154132   3.396348   1.087510
    17  H    7.530282   7.208474   6.847545   6.122807   5.694302
    18  H    8.201353   7.589812   7.733950   6.372138   6.542817
    19  H    6.935393   6.381756   6.569992   5.338773   5.562017
    20  H    4.826223   4.555089   4.061567   3.386358   2.687388
    21  H    4.826376   4.063530   4.553568   2.690364   3.384061
    22  H    4.672360   4.241114   4.236899   3.212785   3.207221
                    6          7          8          9         10
     6  C    0.000000
     7  C    3.745299   0.000000
     8  C    4.874848   1.524714   0.000000
     9  C    1.512411   2.470681   3.828845   0.000000
    10  N    2.449490   1.366818   2.448244   1.462059   0.000000
    11  O    4.255040   1.225551   2.423576   2.775659   2.259192
    12  H    3.898411   7.435720   8.236821   5.410612   6.069366
    13  H    3.412716   6.575130   7.422174   4.684726   5.311489
    14  H    3.412802   6.599705   7.416878   4.685052   5.324291
    15  H    2.154785   4.435945   5.454690   2.729678   3.358600
    16  H    2.154852   4.472507   5.447917   2.730192   3.379065
    17  H    5.255249   2.159672   1.096022   4.276100   2.943117
    18  H    5.750684   2.143206   1.091308   4.583063   3.312631
    19  H    4.850483   2.195099   1.095957   4.074653   2.627930
    20  H    2.157912   2.767446   4.170367   1.097744   2.101456
    21  H    2.157887   2.749650   4.181944   1.097237   2.095030
    22  H    2.538429   2.063282   2.575850   2.136882   1.009278
                   11         12         13         14         15
    11  O    0.000000
    12  H    8.117496   0.000000
    13  H    7.186464   2.486809   0.000000
    14  H    7.222728   2.486725   4.301228   0.000000
    15  H    4.892545   4.300747   2.477390   4.961347   0.000000
    16  H    4.945688   4.300661   4.961285   2.477387   4.295797
    17  H    2.957081   8.499290   7.986776   7.399416   6.173140
    18  H    2.595601   9.206805   8.219704   8.455693   6.115036
    19  H    3.271382   7.867110   6.982522   7.286941   5.202028
    20  H    2.775493   5.892898   5.495428   4.756427   3.706305
    21  H    2.739542   5.893059   4.759388   5.493081   2.489391
    22  H    3.156896   5.661086   5.019915   5.013609   3.405696
                   16         17         18         19         20
    16  H    0.000000
    17  H    5.393236   0.000000
    18  H    6.428746   1.770607   0.000000
    19  H    5.604028   1.775338   1.779650   0.000000
    20  H    2.483765   4.413217   4.892119   4.634651   0.000000
    21  H    3.702522   4.820342   4.732253   4.448094   1.755145
    22  H    3.396857   2.973795   3.568714   2.373746   2.849771
                   21         22
    21  H    0.000000
    22  H    2.862092   0.000000
 Stoichiometry    C9H11NO
 Framework group  C1[X(C9H11NO)]
 Deg. of freedom    60
 Full point group                 C1      NOp   1
 Largest Abelian subgroup         C1      NOp   1
 Largest concise Abelian subgroup C1      NOp   1
                         Standard orientation:                         
 ---------------------------------------------------------------------
 Center     Atomic      Atomic             Coordinates (Angstroms)
 Number     Number       Type             X           Y           Z
 ---------------------------------------------------------------------
      1          6           0        3.540379    0.021605    0.474366
      2          6           0        2.873459   -1.194255    0.312911
      3          6           0        2.882983    1.216206    0.174829
      4          6           0        1.555287   -1.213164   -0.146756
      5          6           0        1.564765    1.192729   -0.284737
      6          6           0        0.885921   -0.021058   -0.451316
      7          6           0       -2.825903   -0.015385    0.048274
      8          6           0       -3.652521    0.107829    1.323528
      9          6           0       -0.552374   -0.042439   -0.918472
     10          7           0       -1.469984    0.010861    0.218527
     11          8           0       -3.323364   -0.100578   -1.068529
     12          1           0        4.568917    0.037679    0.825283
     13          1           0        3.381154   -2.128264    0.538698
     14          1           0        3.398124    2.165882    0.292557
     15          1           0        1.041893   -2.163047   -0.276231
     16          1           0        1.059099    2.125634   -0.522791
     17          1           0       -3.823455    1.165002    1.556837
     18          1           0       -4.622889   -0.364910    1.162728
     19          1           0       -3.168923   -0.359421    2.188937
     20          1           0       -0.751302    0.802318   -1.590674
     21          1           0       -0.755005   -0.950486   -1.500126
     22          1           0       -1.082783    0.085804    1.147560
 ---------------------------------------------------------------------
 Rotational constants (GHZ):      3.0504504      0.4800260      0.4720815
 Standard basis: 6-31G(d) (6D, 7F)
 There are   187 symmetry adapted basis functions of A   symmetry.
 Integral buffers will be    131072 words long.
 Raffenetti 2 integral format.
 Two-electron integral symmetry is turned on.
   187 basis functions,   352 primitive gaussians,   187 cartesian basis functions
    40 alpha electrons       40 beta electrons
       nuclear repulsion energy       559.0620673015 Hartrees.
 NAtoms=   22 NActive=   22 NUniq=   22 SFac= 1.00D+00 NAtFMM=   60 NAOKFM=F Big=F
 One-electron integrals computed using PRISM.
 NBasis=   187 RedAO= T  NBF=   187
 NBsUse=   187 1.00D-06 NBFU=   187
 Initial guess read from the read-write file.
 B after Tr=     0.000000    0.000000    0.000000
         Rot=    1.000000    0.000000    0.000000    0.000000 Ang=   0.00 deg.
 Initial guess orbital symmetries:
       Occupied  (A) (A) (A) (A) (A) (A) (A) (A) (A) (A) (A) (A)
                 (A) (A) (A) (A) (A) (A) (A) (A) (A) (A) (A) (A)
                 (A) (A) (A) (A) (A) (A) (A) (A) (A) (A) (A) (A)
                 (A) (A) (A) (A)
       Virtual   (A) (A) (A) (A) (A) (A) (A) (A) (A) (A) (A) (A)
                 (A) (A) (A) (A) (A) (A) (A) (A) (A) (A) (A) (A)
                 (A) (A) (A) (A) (A) (A) (A) (A) (A) (A) (A) (A)
                 (A) (A) (A) (A) (A) (A) (A) (A) (A) (A) (A) (A)
                 (A) (A) (A) (A) (A) (A) (A) (A) (A) (A) (A) (A)
                 (A) (A) (A) (A) (A) (A) (A) (A) (A) (A) (A) (A)
                 (A) (A) (A) (A) (A) (A) (A) (A) (A) (A) (A) (A)
                 (A) (A) (A) (A) (A) (A) (A) (A) (A) (A) (A) (A)
                 (A) (A) (A) (A) (A) (A) (A) (A) (A) (A) (A) (A)
                 (A) (A) (A) (A) (A) (A) (A) (A) (A) (A) (A) (A)
                 (A) (A) (A) (A) (A) (A) (A) (A) (A) (A) (A) (A)
                 (A) (A) (A) (A) (A) (A) (A) (A) (A) (A) (A) (A)
                 (A) (A) (A)
 Harris functional with IExCor=  402 diagonalized for initial guess.
 ExpMin= 1.61D-01 ExpMax= 5.48D+03 ExpMxC= 8.25D+02 IAcc=3 IRadAn=         5 AccDes= 0.00D+00
 HarFok:  IExCor=  402 AccDes= 0.00D+00 IRadAn=         5 IDoV= 1
 ScaDFX=  1.000000  1.000000  1.000000  1.000000
 FoFCou: FMM=F IPFlag=           0 FMFlag=      100000 FMFlg1=           0
         NFxFlg=           0 DoJE=T BraDBF=F KetDBF=T FulRan=T
         Omega=  0.000000  0.000000  1.000000  0.000000  0.000000 ICntrl=     500 IOpCl=  0
         NMat0=    1 NMatS0=    1 NMatT0=    0 NMatD0=    1 NMtDS0=    0 NMtDT0=    0
         I1Cent=           4 NGrid=           0.
 Petite list used in FoFCou.
 Requested convergence on RMS density matrix=1.00D-08 within 128 cycles.
 Requested convergence on MAX density matrix=1.00D-06.
 Requested convergence on             energy=1.00D-06.
 No special actions if energy rises.
 Integral accuracy reduced to 1.0D-05 until final iterations.
 Initial convergence to 1.0D-05 achieved.  Increase integral accuracy.
 SCF Done:  E(RB3LYP) =  -479.574328787     A.U. after   12 cycles
             Convg  =    0.9995D-08             -V/T =  2.0097
 Calling FoFJK, ICntrl=      2127 FMM=F ISym2X=0 I1Cent= 0 IOpClX= 0 NMat=1 NMatS=1 NMatT=0.
 ***** Axes restored to original set *****
 -------------------------------------------------------------------
 Center     Atomic                   Forces (Hartrees/Bohr)
 Number     Number              X              Y              Z
 -------------------------------------------------------------------
      1        6           0.000035774    0.000061346   -0.000021120
      2        6          -0.000009069    0.000163071    0.000506676
      3        6           0.000032289    0.000193786    0.000428440
      4        6          -0.000451198   -0.000221291   -0.000991905
      5        6           0.000274995   -0.000145275   -0.000933990
      6        6           0.000084137   -0.000722542    0.000434521
      7        6           0.000404663    0.003727825   -0.001322728
      8        6          -0.001280648    0.000143171   -0.000502866
      9        6          -0.000346919    0.002396440   -0.000301638
     10        7          -0.000020462   -0.003697076    0.000589146
     11        8           0.000087648   -0.001492010    0.002086942
     12        1           0.000009705   -0.000123018    0.000116037
     13        1          -0.000042129   -0.000007680    0.000071472
     14        1           0.000051110   -0.000014140    0.000068800
     15        1          -0.000011064    0.000000536    0.000266388
     16        1           0.000057756    0.000007180    0.000255479
     17        1           0.000296789    0.000200180    0.000005767
     18        1           0.000106087    0.000670142    0.000396987
     19        1           0.000539652    0.000304183   -0.000401159
     20        1          -0.000026292   -0.001098857    0.000332027
     21        1           0.000229283   -0.000786173    0.000276659
     22        1          -0.000022106    0.000440204   -0.001359934
 -------------------------------------------------------------------
 Cartesian Forces:  Max     0.003727825 RMS     0.000898654

 GradGradGradGradGradGradGradGradGradGradGradGradGradGradGradGradGradGrad
 Berny optimization.
 Using GEDIIS/GDIIS optimizer.
 Internal  Forces:  Max     0.003898645 RMS     0.000608962
 Search for a local minimum.
 Step number   2 out of a maximum of  114
 All quantities printed in internal units (Hartrees-Bohrs-Radians)
 Mixed Optimization -- En-DIIS/RFO-DIIS
 Update second derivatives using D2CorX and points    1    2
 DE= -1.10D-03 DEPred=-1.29D-03 R= 8.56D-01
 SS=  1.41D+00  RLast= 1.30D-01 DXNew= 5.0454D-01 3.8983D-01
 Trust test= 8.56D-01 RLast= 1.30D-01 DXMaxT set to 3.90D-01
 ITU=  1  0
 Use linear search instead of GDIIS.
     Eigenvalues ---    0.00691   0.00708   0.01100   0.01247   0.01498
     Eigenvalues ---    0.01509   0.02075   0.02082   0.02100   0.02107
     Eigenvalues ---    0.02133   0.02158   0.02159   0.02166   0.02175
     Eigenvalues ---    0.05234   0.06656   0.07030   0.07394   0.10018
     Eigenvalues ---    0.13193   0.15209   0.15999   0.15999   0.16000
     Eigenvalues ---    0.16000   0.16000   0.16000   0.16000   0.16345
     Eigenvalues ---    0.21639   0.21951   0.22000   0.22002   0.23461
     Eigenvalues ---    0.24922   0.24991   0.27828   0.31785   0.33421
     Eigenvalues ---    0.34072   0.34214   0.34400   0.34411   0.34579
     Eigenvalues ---    0.34846   0.34918   0.34958   0.34960   0.35050
     Eigenvalues ---    0.39182   0.41827   0.41920   0.45059   0.45517
     Eigenvalues ---    0.46065   0.46497   0.46620   0.50699   0.91264
 RFO step:  Lambda=-1.29676459D-04 EMin= 6.90980721D-03
 Quartic linear search produced a step of -0.11088.
 Iteration  1 RMS(Cart)=  0.00803501 RMS(Int)=  0.00005963
 Iteration  2 RMS(Cart)=  0.00006787 RMS(Int)=  0.00001320
 Iteration  3 RMS(Cart)=  0.00000001 RMS(Int)=  0.00001320
 Variable       Old X    -DE/DX   Delta X   Delta X   Delta X     New X
                                 (Linear)    (Quad)   (Total)
    R1        2.63829   0.00018  -0.00051   0.00107   0.00056   2.63885
    R2        2.63816   0.00013  -0.00050   0.00096   0.00046   2.63862
    R3        2.05389  -0.00011   0.00037  -0.00083  -0.00046   2.05343
    R4        2.63834  -0.00061  -0.00007  -0.00107  -0.00115   2.63719
    R5        2.05373   0.00001   0.00041  -0.00058  -0.00017   2.05356
    R6        2.63849  -0.00057  -0.00009  -0.00096  -0.00105   2.63744
    R7        2.05374   0.00000   0.00041  -0.00058  -0.00017   2.05356
    R8        2.64691   0.00031   0.00027   0.00024   0.00051   2.64742
    R9        2.05504   0.00015   0.00047  -0.00028   0.00018   2.05522
   R10        2.64687   0.00025   0.00028   0.00011   0.00039   2.64726
   R11        2.05510   0.00017   0.00046  -0.00025   0.00022   2.05531
   R12        2.85804  -0.00019  -0.00142   0.00152   0.00010   2.85815
   R13        2.88129  -0.00143  -0.00430   0.00228  -0.00202   2.87928
   R14        2.58291  -0.00036   0.00082  -0.00183  -0.00100   2.58191
   R15        2.31596   0.00026   0.00081  -0.00093  -0.00012   2.31584
   R16        2.07118   0.00023  -0.00060   0.00147   0.00087   2.07205
   R17        2.06227   0.00025   0.00045  -0.00001   0.00044   2.06271
   R18        2.07106  -0.00020  -0.00047   0.00018  -0.00030   2.07076
   R19        2.76289  -0.00046  -0.00363   0.00423   0.00060   2.76349
   R20        2.07444  -0.00048  -0.00026  -0.00088  -0.00114   2.07329
   R21        2.07348  -0.00044  -0.00015  -0.00093  -0.00109   2.07239
   R22        1.90726   0.00054   0.00147  -0.00108   0.00039   1.90765
    A1        2.08916   0.00015   0.00053  -0.00022   0.00032   2.08947
    A2        2.09702  -0.00008  -0.00027   0.00010  -0.00016   2.09686
    A3        2.09699  -0.00007  -0.00026   0.00011  -0.00015   2.09684
    A4        2.09542  -0.00004   0.00000  -0.00018  -0.00019   2.09523
    A5        2.09587   0.00011  -0.00020   0.00086   0.00066   2.09653
    A6        2.09188  -0.00006   0.00021  -0.00068  -0.00047   2.09141
    A7        2.09534  -0.00005   0.00001  -0.00024  -0.00023   2.09511
    A8        2.09589   0.00011  -0.00021   0.00090   0.00069   2.09658
    A9        2.09193  -0.00006   0.00020  -0.00066  -0.00045   2.09148
   A10        2.10744  -0.00009  -0.00055   0.00048  -0.00008   2.10737
   A11        2.09065   0.00027  -0.00100   0.00285   0.00185   2.09251
   A12        2.08507  -0.00018   0.00156  -0.00334  -0.00179   2.08329
   A13        2.10749  -0.00008  -0.00056   0.00054  -0.00003   2.10746
   A14        2.09050   0.00025  -0.00100   0.00273   0.00174   2.09224
   A15        2.08518  -0.00017   0.00156  -0.00328  -0.00172   2.08345
   A16        2.07153   0.00011   0.00057  -0.00038   0.00020   2.07172
   A17        2.10551  -0.00003  -0.00030   0.00028  -0.00002   2.10549
   A18        2.10586  -0.00008  -0.00031   0.00015  -0.00016   2.10570
   A19        2.01760  -0.00188  -0.00303  -0.00216  -0.00522   2.01239
   A20        2.15044  -0.00201  -0.00121  -0.00530  -0.00654   2.14391
   A21        2.11474   0.00390   0.00425   0.00780   0.01203   2.12677
   A22        1.91829  -0.00034  -0.00139  -0.00092  -0.00230   1.91599
   A23        1.90056  -0.00073   0.00103  -0.00510  -0.00406   1.89650
   A24        1.96792  -0.00013  -0.00353   0.00495   0.00144   1.96936
   A25        1.88654   0.00028   0.00271  -0.00362  -0.00092   1.88562
   A26        1.88805   0.00012   0.00220  -0.00337  -0.00115   1.88690
   A27        1.90077   0.00084  -0.00084   0.00783   0.00700   1.90777
   A28        1.93493  -0.00074   0.00033  -0.00460  -0.00427   1.93066
   A29        1.92901   0.00074   0.00057   0.00404   0.00459   1.93360
   A30        1.92950   0.00065   0.00051   0.00452   0.00502   1.93452
   A31        1.91178  -0.00055  -0.00187  -0.00391  -0.00577   1.90601
   A32        1.90341  -0.00026  -0.00075  -0.00245  -0.00319   1.90022
   A33        1.85332   0.00019   0.00118   0.00257   0.00373   1.85705
   A34        2.12356  -0.00138   0.00062  -0.00647  -0.00585   2.11771
   A35        2.09055   0.00195  -0.00075   0.01089   0.01014   2.10069
   A36        2.06891  -0.00057   0.00014  -0.00444  -0.00430   2.06461
    D1        0.00053  -0.00003   0.00028  -0.00177  -0.00149  -0.00096
    D2        3.13537   0.00001   0.00138  -0.00163  -0.00024   3.13512
    D3       -3.13390  -0.00008  -0.00099  -0.00174  -0.00273  -3.13663
    D4        0.00094  -0.00004   0.00011  -0.00160  -0.00148  -0.00055
    D5       -0.00065   0.00004  -0.00026   0.00190   0.00163   0.00098
    D6       -3.13521  -0.00001  -0.00140   0.00143   0.00003  -3.13518
    D7        3.13378   0.00008   0.00101   0.00186   0.00287   3.13665
    D8       -0.00078   0.00003  -0.00013   0.00140   0.00127   0.00049
    D9        0.00024   0.00003   0.00073   0.00031   0.00105   0.00128
   D10        3.13559   0.00001   0.00159  -0.00187  -0.00027   3.13532
   D11       -3.13461  -0.00001  -0.00037   0.00016  -0.00021  -3.13482
   D12        0.00074  -0.00003   0.00049  -0.00202  -0.00152  -0.00078
   D13        0.00000  -0.00004  -0.00076  -0.00056  -0.00132  -0.00132
   D14       -3.13477  -0.00001  -0.00168   0.00189   0.00021  -3.13456
   D15        3.13458   0.00001   0.00037  -0.00009   0.00028   3.13486
   D16       -0.00019   0.00004  -0.00055   0.00236   0.00181   0.00162
   D17       -0.00087  -0.00004  -0.00173   0.00102  -0.00071  -0.00158
   D18       -3.11671  -0.00004  -0.00021  -0.00153  -0.00174  -3.11845
   D19       -3.13625  -0.00002  -0.00259   0.00317   0.00058  -3.13566
   D20        0.03110  -0.00002  -0.00107   0.00062  -0.00044   0.03066
   D21        0.00075   0.00004   0.00175  -0.00090   0.00085   0.00160
   D22        3.11658   0.00004   0.00022   0.00166   0.00188   3.11846
   D23        3.13554   0.00001   0.00266  -0.00332  -0.00066   3.13488
   D24       -0.03181   0.00002   0.00114  -0.00076   0.00037  -0.03144
   D25        1.54639   0.00008  -0.00008  -0.00156  -0.00163   1.54475
   D26       -2.61350  -0.00062  -0.00183  -0.00686  -0.00871  -2.62221
   D27       -0.56667   0.00047   0.00031   0.00157   0.00189  -0.56478
   D28       -1.56894   0.00007   0.00146  -0.00415  -0.00269  -1.57163
   D29        0.55435  -0.00062  -0.00030  -0.00945  -0.00976   0.54459
   D30        2.60119   0.00046   0.00184  -0.00102   0.00084   2.60203
   D31        1.52660   0.00026  -0.00161   0.02287   0.02121   1.54781
   D32       -2.69306  -0.00003   0.00147   0.01492   0.01637  -2.67669
   D33       -0.58135   0.00044  -0.00114   0.02450   0.02333  -0.55802
   D34       -1.58504   0.00003  -0.00212   0.01006   0.00795  -1.57708
   D35        0.47849  -0.00026   0.00096   0.00211   0.00311   0.48160
   D36        2.59020   0.00021  -0.00165   0.01169   0.01007   2.60028
   D37       -3.09732  -0.00004  -0.00361  -0.00051  -0.00416  -3.10148
   D38        0.02434  -0.00006  -0.00255  -0.00243  -0.00503   0.01931
   D39        0.01498   0.00008  -0.00320   0.01177   0.00861   0.02359
   D40        3.13664   0.00006  -0.00214   0.00985   0.00775  -3.13880
   D41       -3.12554   0.00000   0.00017   0.00091   0.00109  -3.12445
   D42        0.03574   0.00000  -0.00087   0.00264   0.00178   0.03752
   D43        1.02428  -0.00007   0.00049   0.00151   0.00199   1.02627
   D44       -2.09763  -0.00007  -0.00055   0.00324   0.00268  -2.09494
   D45       -0.99716   0.00016   0.00052   0.00197   0.00249  -0.99466
   D46        2.16412   0.00015  -0.00052   0.00370   0.00318   2.16731
         Item               Value     Threshold  Converged?
 Maximum Force            0.003899     0.000450     NO 
 RMS     Force            0.000609     0.000300     NO 
 Maximum Displacement     0.036241     0.001800     NO 
 RMS     Displacement     0.008043     0.001200     NO 
 Predicted change in Energy=-8.246958D-05
 GradGradGradGradGradGradGradGradGradGradGradGradGradGradGradGradGradGrad

                          Input orientation:                          
 ---------------------------------------------------------------------
 Center     Atomic      Atomic             Coordinates (Angstroms)
 Number     Number       Type             X           Y           Z
 ---------------------------------------------------------------------
      1          6           0        1.989563   -1.056295   -0.126085
      2          6           0        0.824352   -1.073164    0.643321
      3          6           0        3.234052   -0.991525    0.503754
      4          6           0        0.905657   -1.026575    2.035713
      5          6           0        3.310674   -0.945113    1.896549
      6          6           0        2.148611   -0.961070    2.678718
      7          6           0        2.355723   -2.538598    6.063624
      8          6           0        2.466679   -4.004937    6.462418
      9          6           0        2.235164   -0.940763    4.188569
     10          7           0        2.293513   -2.302149    4.719392
     11          8           0        2.340889   -1.626631    6.882111
     12          1           0        1.927862   -1.087855   -1.210503
     13          1           0       -0.147847   -1.117399    0.159808
     14          1           0        4.144824   -0.972016   -0.088722
     15          1           0       -0.003662   -1.033942    2.632294
     16          1           0        4.281196   -0.888071    2.384155
     17          1           0        3.521979   -4.300104    6.501034
     18          1           0        2.044490   -4.128097    7.461442
     19          1           0        1.950727   -4.675308    5.765873
     20          1           0        3.121484   -0.385712    4.520336
     21          1           0        1.368284   -0.427765    4.622182
     22          1           0        2.304910   -3.070771    4.065059
 ---------------------------------------------------------------------
                    Distance matrix (angstroms):
                    1          2          3          4          5
     1  C    0.000000
     2  C    1.396419   0.000000
     3  C    1.396298   2.415119   0.000000
     4  C    2.418492   1.395542   2.787391   0.000000
     5  C    2.418418   2.787252   1.395672   2.410416   0.000000
     6  C    2.810922   2.430857   2.430962   1.400957   1.400869
     7  C    6.375248   5.819990   5.837555   4.540151   4.562416
     8  C    7.233982   6.719704   6.721249   5.559060   5.560756
     9  C    4.323182   3.817945   3.818142   2.531746   2.531817
    10  N    5.012303   4.503687   4.513751   3.279537   3.293114
    11  O    7.040137   6.444278   6.471826   5.089944   5.124527
    12  H    1.086630   2.157455   2.157334   3.403906   3.403868
    13  H    2.157310   1.086697   3.401674   2.153402   3.873928
    14  H    2.157232   3.401714   1.086699   3.874068   2.153563
    15  H    3.403248   2.154799   3.874955   1.087577   3.396179
    16  H    3.403114   3.874859   2.154790   3.396300   1.087624
    17  H    7.535868   7.211321   6.855433   6.123743   5.701044
    18  H    8.185936   7.570214   7.724154   6.352552   6.534726
    19  H    6.914762   6.362760   6.550349   5.321609   5.543959
    20  H    4.829094   4.558580   4.063570   3.390271   2.689420
    21  H    4.829812   4.067400   4.556354   2.694888   3.386680
    22  H    4.660820   4.229749   4.227228   3.202325   3.198815
                    6          7          8          9         10
     6  C    0.000000
     7  C    3.740198   0.000000
     8  C    4.866486   1.523647   0.000000
     9  C    1.512466   2.466463   3.822715   0.000000
    10  N    2.446189   1.366286   2.442870   1.462378   0.000000
    11  O    4.260101   1.225490   2.418328   2.781504   2.266258
    12  H    3.897543   7.429713   8.226385   5.409810   6.063981
    13  H    3.412193   6.568311   7.409218   4.684106   5.306003
    14  H    3.412288   6.595940   7.411627   4.684335   5.321143
    15  H    2.154007   4.427721   5.440519   2.728189   3.352811
    16  H    2.154069   4.468799   5.444221   2.728540   3.376955
    17  H    5.257889   2.157403   1.096482   4.276513   2.945370
    18  H    5.737191   2.139456   1.091541   4.572434   3.303777
    19  H    4.833762   2.195042   1.095800   4.063942   2.616202
    20  H    2.160804   2.757361   4.159236   1.097139   2.097114
    21  H    2.161106   2.740147   4.170024   1.096662   2.092562
    22  H    2.529270   2.068829   2.578016   2.134726   1.009486
                   11         12         13         14         15
    11  O    0.000000
    12  H    8.121039   0.000000
    13  H    7.186270   2.487407   0.000000
    14  H    7.230161   2.487314   4.302317   0.000000
    15  H    4.889698   4.301253   2.478092   4.961623   0.000000
    16  H    4.953975   4.301123   4.961525   2.478057   4.294515
    17  H    2.947483   8.504561   7.988015   7.408711   6.169693
    18  H    2.584727   9.190174   8.196615   8.448505   6.090107
    19  H    3.269962   7.844754   6.963526   7.266686   5.186377
    20  H    2.779782   5.895782   5.498917   4.757562   3.708294
    21  H    2.736881   5.896530   4.763091   5.495271   2.491856
    22  H    3.165852   5.648511   5.008259   5.004393   3.395731
                   16         17         18         19         20
    16  H    0.000000
    17  H    5.400654   0.000000
    18  H    6.424909   1.770577   0.000000
    19  H    5.586614   1.774844   1.784148   0.000000
    20  H    2.482048   4.405227   4.880109   4.617647   0.000000
    21  H    3.702121   4.812847   4.712867   4.437217   1.756658
    22  H    3.390475   2.987724   3.566676   2.364901   2.843169
                   21         22
    21  H    0.000000
    22  H    2.858870   0.000000
 Stoichiometry    C9H11NO
 Framework group  C1[X(C9H11NO)]
 Deg. of freedom    60
 Full point group                 C1      NOp   1
 Largest Abelian subgroup         C1      NOp   1
 Largest concise Abelian subgroup C1      NOp   1
                         Standard orientation:                         
 ---------------------------------------------------------------------
 Center     Atomic      Atomic             Coordinates (Angstroms)
 Number     Number       Type             X           Y           Z
 ---------------------------------------------------------------------
      1          6           0        3.538869    0.015372    0.473443
      2          6           0        2.869854   -1.198597    0.304077
      3          6           0        2.883943    1.213336    0.180865
      4          6           0        1.551933   -1.212096   -0.154662
      5          6           0        1.565865    1.195140   -0.277656
      6          6           0        0.884771   -0.016563   -0.451775
      7          6           0       -2.822034   -0.011779    0.046871
      8          6           0       -3.644362    0.096461    1.324980
      9          6           0       -0.553207   -0.032305   -0.920311
     10          7           0       -1.467046    0.012810    0.220483
     11          8           0       -3.330191   -0.096926   -1.065043
     12          1           0        4.566594    0.027424    0.826148
     13          1           0        3.375255   -2.135130    0.524048
     14          1           0        3.400249    2.161513    0.304575
     15          1           0        1.035237   -2.159302   -0.291228
     16          1           0        1.060468    2.129511   -0.511002
     17          1           0       -3.831566    1.151530    1.557482
     18          1           0       -4.607930   -0.389981    1.162583
     19          1           0       -3.149094   -0.360140    2.189273
     20          1           0       -0.757116    0.820273   -1.580041
     21          1           0       -0.762504   -0.934860   -1.507046
     22          1           0       -1.072531    0.081077    1.147176
 ---------------------------------------------------------------------
 Rotational constants (GHZ):      3.0519890      0.4805504      0.4725318
 Standard basis: 6-31G(d) (6D, 7F)
 There are   187 symmetry adapted basis functions of A   symmetry.
 Integral buffers will be    131072 words long.
 Raffenetti 2 integral format.
 Two-electron integral symmetry is turned on.
   187 basis functions,   352 primitive gaussians,   187 cartesian basis functions
    40 alpha electrons       40 beta electrons
       nuclear repulsion energy       559.2209338810 Hartrees.
 NAtoms=   22 NActive=   22 NUniq=   22 SFac= 1.00D+00 NAtFMM=   60 NAOKFM=F Big=F
 One-electron integrals computed using PRISM.
 NBasis=   187 RedAO= T  NBF=   187
 NBsUse=   187 1.00D-06 NBFU=   187
 Initial guess read from the read-write file.
 B after Tr=     0.000000    0.000000    0.000000
         Rot=    1.000000    0.000000    0.000000    0.000000 Ang=   0.00 deg.
 Initial guess orbital symmetries:
       Occupied  (A) (A) (A) (A) (A) (A) (A) (A) (A) (A) (A) (A)
                 (A) (A) (A) (A) (A) (A) (A) (A) (A) (A) (A) (A)
                 (A) (A) (A) (A) (A) (A) (A) (A) (A) (A) (A) (A)
                 (A) (A) (A) (A)
       Virtual   (A) (A) (A) (A) (A) (A) (A) (A) (A) (A) (A) (A)
                 (A) (A) (A) (A) (A) (A) (A) (A) (A) (A) (A) (A)
                 (A) (A) (A) (A) (A) (A) (A) (A) (A) (A) (A) (A)
                 (A) (A) (A) (A) (A) (A) (A) (A) (A) (A) (A) (A)
                 (A) (A) (A) (A) (A) (A) (A) (A) (A) (A) (A) (A)
                 (A) (A) (A) (A) (A) (A) (A) (A) (A) (A) (A) (A)
                 (A) (A) (A) (A) (A) (A) (A) (A) (A) (A) (A) (A)
                 (A) (A) (A) (A) (A) (A) (A) (A) (A) (A) (A) (A)
                 (A) (A) (A) (A) (A) (A) (A) (A) (A) (A) (A) (A)
                 (A) (A) (A) (A) (A) (A) (A) (A) (A) (A) (A) (A)
                 (A) (A) (A) (A) (A) (A) (A) (A) (A) (A) (A) (A)
                 (A) (A) (A) (A) (A) (A) (A) (A) (A) (A) (A) (A)
                 (A) (A) (A)
 Harris functional with IExCor=  402 diagonalized for initial guess.
 ExpMin= 1.61D-01 ExpMax= 5.48D+03 ExpMxC= 8.25D+02 IAcc=3 IRadAn=         5 AccDes= 0.00D+00
 HarFok:  IExCor=  402 AccDes= 0.00D+00 IRadAn=         5 IDoV= 1
 ScaDFX=  1.000000  1.000000  1.000000  1.000000
 FoFCou: FMM=F IPFlag=           0 FMFlag=      100000 FMFlg1=           0
         NFxFlg=           0 DoJE=T BraDBF=F KetDBF=T FulRan=T
         Omega=  0.000000  0.000000  1.000000  0.000000  0.000000 ICntrl=     500 IOpCl=  0
         NMat0=    1 NMatS0=    1 NMatT0=    0 NMatD0=    1 NMtDS0=    0 NMtDT0=    0
         I1Cent=           4 NGrid=           0.
 Petite list used in FoFCou.
 Requested convergence on RMS density matrix=1.00D-08 within 128 cycles.
 Requested convergence on MAX density matrix=1.00D-06.
 Requested convergence on             energy=1.00D-06.
 No special actions if energy rises.
 Integral accuracy reduced to 1.0D-05 until final iterations.
 Initial convergence to 1.0D-05 achieved.  Increase integral accuracy.
 SCF Done:  E(RB3LYP) =  -479.574416427     A.U. after   10 cycles
             Convg  =    0.8218D-08             -V/T =  2.0097
 Calling FoFJK, ICntrl=      2127 FMM=F ISym2X=0 I1Cent= 0 IOpClX= 0 NMat=1 NMatS=1 NMatT=0.
 ***** Axes restored to original set *****
 -------------------------------------------------------------------
 Center     Atomic                   Forces (Hartrees/Bohr)
 Number     Number              X              Y              Z
 -------------------------------------------------------------------
      1        6           0.000034295    0.000055190    0.000188166
      2        6           0.000162464   -0.000029263    0.000102763
      3        6          -0.000164961   -0.000037352    0.000073078
      4        6          -0.000161932   -0.000037979   -0.000167380
      5        6           0.000097840    0.000039145   -0.000140973
      6        6           0.000053871    0.000087681    0.000354838
      7        6          -0.001277329    0.000178599   -0.000570742
      8        6           0.000012818   -0.000151921   -0.000045162
      9        6          -0.000094859    0.001049580   -0.000582961
     10        7           0.000151926   -0.000847658    0.000985179
     11        8           0.000706594   -0.000200557   -0.000034106
     12        1          -0.000003746   -0.000019181   -0.000046145
     13        1          -0.000048029   -0.000007895   -0.000046465
     14        1           0.000044338   -0.000005840   -0.000048582
     15        1          -0.000071550   -0.000012092    0.000062899
     16        1           0.000081507   -0.000007193    0.000047896
     17        1           0.000076177    0.000078624    0.000123229
     18        1          -0.000046963    0.000088265    0.000068713
     19        1           0.000244864    0.000195146   -0.000040996
     20        1          -0.000016888   -0.000229134   -0.000064892
     21        1           0.000076429   -0.000217404    0.000000360
     22        1           0.000143137    0.000031240   -0.000218717
 -------------------------------------------------------------------
 Cartesian Forces:  Max     0.001277329 RMS     0.000311472

 GradGradGradGradGradGradGradGradGradGradGradGradGradGradGradGradGradGrad
 Berny optimization.
 Using GEDIIS/GDIIS optimizer.
 Internal  Forces:  Max     0.000681947 RMS     0.000138515
 Search for a local minimum.
 Step number   3 out of a maximum of  114
 All quantities printed in internal units (Hartrees-Bohrs-Radians)
 Mixed Optimization -- En-DIIS/RFO-DIIS
 Swaping is turned off.
 Update second derivatives using D2CorX and points    1    2    3
 DE= -8.76D-05 DEPred=-8.25D-05 R= 1.06D+00
 SS=  1.41D+00  RLast= 4.97D-02 DXNew= 6.5562D-01 1.4900D-01
 Trust test= 1.06D+00 RLast= 4.97D-02 DXMaxT set to 3.90D-01
 ITU=  1  1  0
     Eigenvalues ---    0.00606   0.00692   0.01095   0.01452   0.01501
     Eigenvalues ---    0.01531   0.02078   0.02097   0.02101   0.02132
     Eigenvalues ---    0.02134   0.02158   0.02159   0.02168   0.02177
     Eigenvalues ---    0.05276   0.06495   0.06969   0.07394   0.09809
     Eigenvalues ---    0.13170   0.14868   0.15998   0.15999   0.16000
     Eigenvalues ---    0.16000   0.16000   0.16000   0.16009   0.16145
     Eigenvalues ---    0.21412   0.21945   0.22000   0.22001   0.23497
     Eigenvalues ---    0.24624   0.24992   0.27868   0.31898   0.32956
     Eigenvalues ---    0.33970   0.34074   0.34396   0.34421   0.34438
     Eigenvalues ---    0.34846   0.34856   0.34958   0.34963   0.34966
     Eigenvalues ---    0.40400   0.41829   0.41936   0.45021   0.45516
     Eigenvalues ---    0.46089   0.46332   0.46620   0.50723   0.91281
 En-DIIS/RFO-DIIS IScMMF=        0 using points:     3    2
 RFO step:  Lambda=-7.47371068D-06.
 DidBck=F Rises=F RFO-DIIS coefs:    1.07289   -0.07289
 Iteration  1 RMS(Cart)=  0.00654346 RMS(Int)=  0.00005652
 Iteration  2 RMS(Cart)=  0.00007211 RMS(Int)=  0.00001999
 Iteration  3 RMS(Cart)=  0.00000000 RMS(Int)=  0.00001999
 Variable       Old X    -DE/DX   Delta X   Delta X   Delta X     New X
                                  (DIIS)     (GDIIS)  (Total)
    R1        2.63885  -0.00007   0.00004   0.00006   0.00010   2.63895
    R2        2.63862  -0.00010   0.00003  -0.00003   0.00001   2.63863
    R3        2.05343   0.00005  -0.00003  -0.00006  -0.00009   2.05334
    R4        2.63719  -0.00013  -0.00008  -0.00059  -0.00067   2.63652
    R5        2.05356   0.00006  -0.00001   0.00006   0.00005   2.05361
    R6        2.63744  -0.00010  -0.00008  -0.00049  -0.00056   2.63687
    R7        2.05356   0.00006  -0.00001   0.00006   0.00005   2.05361
    R8        2.64742   0.00014   0.00004   0.00044   0.00048   2.64790
    R9        2.05522   0.00009   0.00001   0.00024   0.00026   2.05548
   R10        2.64726   0.00010   0.00003   0.00033   0.00036   2.64761
   R11        2.05531   0.00009   0.00002   0.00025   0.00027   2.05558
   R12        2.85815  -0.00038   0.00001  -0.00096  -0.00096   2.85719
   R13        2.87928  -0.00015  -0.00015  -0.00014  -0.00029   2.87899
   R14        2.58191  -0.00054  -0.00007  -0.00159  -0.00167   2.58024
   R15        2.31584  -0.00018  -0.00001  -0.00042  -0.00043   2.31541
   R16        2.07205   0.00006   0.00006   0.00054   0.00060   2.07266
   R17        2.06271   0.00007   0.00003   0.00024   0.00028   2.06299
   R18        2.07076  -0.00021  -0.00002  -0.00064  -0.00066   2.07011
   R19        2.76349   0.00068   0.00004   0.00284   0.00289   2.76638
   R20        2.07329  -0.00015  -0.00008  -0.00073  -0.00081   2.07248
   R21        2.07239  -0.00016  -0.00008  -0.00078  -0.00086   2.07154
   R22        1.90765   0.00012   0.00003   0.00008   0.00010   1.90776
    A1        2.08947   0.00009   0.00002   0.00030   0.00032   2.08979
    A2        2.09686  -0.00005  -0.00001  -0.00016  -0.00017   2.09668
    A3        2.09684  -0.00004  -0.00001  -0.00013  -0.00014   2.09670
    A4        2.09523   0.00002  -0.00001  -0.00001  -0.00002   2.09521
    A5        2.09653  -0.00003   0.00005   0.00006   0.00011   2.09664
    A6        2.09141   0.00001  -0.00003  -0.00006  -0.00009   2.09132
    A7        2.09511   0.00001  -0.00002  -0.00004  -0.00006   2.09505
    A8        2.09658  -0.00003   0.00005   0.00010   0.00015   2.09673
    A9        2.09148   0.00001  -0.00003  -0.00005  -0.00009   2.09139
   A10        2.10737  -0.00010  -0.00001  -0.00030  -0.00030   2.10706
   A11        2.09251   0.00006   0.00014   0.00101   0.00114   2.09365
   A12        2.08329   0.00003  -0.00013  -0.00071  -0.00084   2.08245
   A13        2.10746  -0.00009   0.00000  -0.00026  -0.00026   2.10721
   A14        2.09224   0.00005   0.00013   0.00091   0.00104   2.09328
   A15        2.08345   0.00004  -0.00013  -0.00065  -0.00078   2.08268
   A16        2.07172   0.00006   0.00001   0.00031   0.00032   2.07205
   A17        2.10549  -0.00005   0.00000  -0.00025  -0.00025   2.10525
   A18        2.10570  -0.00001  -0.00001  -0.00011  -0.00012   2.10558
   A19        2.01239   0.00019  -0.00038  -0.00007  -0.00056   2.01183
   A20        2.14391  -0.00028  -0.00048  -0.00287  -0.00346   2.14045
   A21        2.12677   0.00009   0.00088   0.00253   0.00330   2.13007
   A22        1.91599  -0.00008  -0.00017  -0.00110  -0.00127   1.91472
   A23        1.89650  -0.00009  -0.00030  -0.00183  -0.00213   1.89436
   A24        1.96936  -0.00010   0.00011   0.00064   0.00075   1.97011
   A25        1.88562   0.00003  -0.00007  -0.00099  -0.00106   1.88456
   A26        1.88690   0.00007  -0.00008  -0.00052  -0.00060   1.88630
   A27        1.90777   0.00018   0.00051   0.00377   0.00428   1.91205
   A28        1.93066   0.00001  -0.00031  -0.00150  -0.00181   1.92885
   A29        1.93360   0.00003   0.00033   0.00154   0.00187   1.93547
   A30        1.93452   0.00007   0.00037   0.00184   0.00220   1.93672
   A31        1.90601  -0.00007  -0.00042  -0.00194  -0.00236   1.90365
   A32        1.90022  -0.00013  -0.00023  -0.00216  -0.00239   1.89783
   A33        1.85705   0.00009   0.00027   0.00223   0.00249   1.85954
   A34        2.11771  -0.00015  -0.00043  -0.00245  -0.00288   2.11483
   A35        2.10069   0.00025   0.00074   0.00441   0.00515   2.10584
   A36        2.06461  -0.00010  -0.00031  -0.00199  -0.00230   2.06230
    D1       -0.00096   0.00001  -0.00011   0.00014   0.00003  -0.00093
    D2        3.13512   0.00001  -0.00002   0.00048   0.00046   3.13559
[...]
 000515,-0.00000369,0.00000923,0.00026837,-0.00099983,-0.00006061,-0.00
 010043,-0.00009385,0.00018951,0.00001260,-0.00000813,0.00001274,0.0078
 6807,0.02633414,-0.08858773,-0.00651369,-0.30637881,-0.01107523,-0.001
 14867,-0.01822170,0.00032271,0.00015551,-0.00151170,0.00430311,0.00087
 206,-0.00166089,-0.00089625,0.00001710,0.00169215,0.00068692,0.0000833
 1,0.00048868,-0.00001049,-0.00015971,0.00013504,0.00001494,0.00002578,
 -0.00000713,-0.00001296,-0.00010063,0.00011798,0.00002205,0.00005060,-
 0.00013073,-0.00003983,0.00008809,-0.00015867,0.09590059,0.00688368,0.
 32492841,-0.01532003,-0.00247210,-0.00627373,-0.32378130,-0.04166419,-
 0.04694776,-0.00027320,-0.00112859,0.00394678,-0.00669693,-0.00136504,
 0.00019028,0.00072193,0.00013274,0.00032841,0.00165640,-0.00080989,-0.
 00200195,-0.00034855,-0.00008573,0.00026443,0.00002253,0.00002184,-0.0
 0001265,-0.00037140,-0.00032940,0.00049481,0.00018020,0.00019250,-0.00
 029185,0.00017102,-0.00000661,-0.00013062,0.00082999,0.00066425,0.0002
 7397,0.34356792,-0.00350765,0.00194450,-0.00098310,-0.04144726,-0.0422
 1717,-0.00633051,-0.00104546,0.00658571,0.00094893,-0.00055664,0.00248
 153,0.00002989,0.00010802,-0.00016807,-0.00001502,-0.00109049,0.007537
 00,0.00005548,0.00000607,0.00005289,0.00002252,0.00000998,0.00000269,-
 0.00000289,0.00001117,0.00025724,0.00001772,-0.00000558,-0.00013016,0.
 00004433,0.00001614,-0.00002739,-0.00002618,0.00070793,-0.00364041,-0.
 00007975,0.04604892,0.03239763,0.02510060,0.00358642,0.00893851,-0.047
 05543,-0.00625153,-0.06892146,0.00264279,0.00069220,-0.00375597,-0.030
 94322,-0.00445737,-0.00048507,0.00032497,0.00006003,-0.00133633,-0.000
 74722,0.00031166,-0.00541900,-0.00046468,0.00002756,0.00028649,0.00001
 647,0.00000411,-0.00002035,-0.00150441,-0.00052161,0.00050155,0.000290
 28,0.00015714,-0.00016039,0.00028287,-0.00009061,-0.00007257,-0.000505
 16,-0.00020378,0.00098001,0.05101147,0.00651943,0.06837092,-0.01461261
 ,-0.00335137,0.02606061,-0.00482994,-0.00177407,-0.00299335,-0.1731597
 1,-0.02507645,0.13452946,-0.00045352,0.00001643,-0.00101140,0.01069450
 ,0.00156011,-0.00972319,0.00020501,-0.00096414,-0.00242997,-0.00000812
 ,0.00005042,-0.00003927,-0.00000492,-0.00000890,0.00000531,0.00036183,
 0.00001747,-0.00046210,0.00000237,-0.00002842,0.00002871,0.00001736,-0
 .00002856,0.00004920,0.00097713,0.00078466,-0.00031999,-0.00088581,-0.
 00022406,0.00138177,0.18086403,-0.00251219,0.00192342,0.00395102,-0.00
 182040,0.00684960,-0.00035196,-0.02514595,-0.03978781,0.02580797,0.000
 04217,-0.00045869,-0.00014922,0.00070666,0.00217872,-0.00088865,-0.000
 90751,0.00696031,-0.00033290,-0.00009019,0.00003309,0.00001926,-0.0000
 0717,-0.00000126,0.00000581,0.00010335,0.00028843,0.00013667,-0.000124
 20,0.00010957,-0.00016022,0.00005129,-0.00003622,0.00001105,0.00075958
 ,-0.00384034,-0.00017768,-0.00019116,0.00031143,0.00022200,0.02811348,
 0.03041705,-0.00528846,-0.00098537,0.00826201,-0.00159433,-0.00008519,
 0.00090558,0.13462531,0.02583240,-0.22072111,-0.00099153,-0.00017160,-
 0.00012080,0.02168352,0.00386902,-0.01802731,-0.00397395,-0.00020611,-
 0.00392947,-0.00039231,-0.00005531,0.00025743,0.00004983,0.00002750,-0
 .00000933,0.00136297,-0.00013368,-0.00015886,0.00011844,0.00023262,-0.
 00053405,0.00016038,-0.00001681,-0.00012014,0.00044118,-0.00005462,0.0
 0084741,-0.00035770,-0.00004610,0.00031964,-0.14556409,-0.02811991,0.2
 3228762,0.00001241,-0.00099854,-0.00263889,0.01140613,0.00145057,-0.01
 031607,-0.00039891,0.00000640,-0.00091605,-0.17265207,-0.02274285,0.13
 449479,-0.00481587,-0.00160880,-0.00286488,-0.01552645,-0.00324745,0.0
 2544558,-0.00165029,0.00131855,-0.00023034,0.00004418,-0.00006349,-0.0
 0006709,0.00061282,0.00022097,0.00138300,0.00046296,0.00054173,-0.0004
 5071,0.00092840,-0.00090231,0.00097340,0.00045349,0.00006512,-0.000628
 95,0.00075151,0.00069304,0.00043763,0.00007482,0.00019353,0.00014024,0
 .18116600,-0.00100506,0.00724184,-0.00013171,0.00089104,0.00307433,-0.
 00109070,-0.00002712,-0.00026288,-0.00019288,-0.02256870,-0.04242266,0
 .02366055,-0.00170265,0.00601719,-0.00018368,-0.00310392,0.00309131,0.
 00352601,0.00084035,-0.00032062,0.00052733,0.00005440,-0.00013570,0.00
 000961,0.00079754,-0.00246738,0.00038637,-0.00048958,-0.00042208,0.000
 27883,-0.00033340,-0.00026976,-0.00004710,0.00001765,0.00024576,-0.000
 07279,0.00072844,-0.00399693,-0.00003862,0.00021396,-0.00125740,-0.000
 00762,0.02579378,0.03187610,-0.00355323,-0.00027059,-0.00379255,0.0201
 5659,0.00354067,-0.01730403,-0.00090269,-0.00013792,-0.00004303,0.1365
 9301,0.02390635,-0.22515303,-0.00204205,-0.00023148,0.00061748,-0.0049
 8202,-0.00089774,0.00829339,-0.00195206,0.00104658,0.00026405,-0.00001
 079,-0.00017698,-0.00015530,-0.00046648,-0.00024947,0.00079986,0.00077
 252,0.00026673,-0.00016750,0.00114596,-0.00043915,-0.00063201,0.001026
 00,0.00015996,-0.00093315,-0.00019342,-0.00014405,0.00106579,0.0001361
 0,-0.00001331,0.00004099,-0.14549813,-0.02614004,0.23634932,0.00176618
 ,-0.00084524,-0.00223974,0.00061777,0.00012687,0.00049540,-0.00703344,
 -0.00148128,0.00044492,-0.00034283,-0.00119228,0.00405132,-0.31715775,
 -0.04348630,-0.04592834,-0.01725404,-0.00320638,-0.00575260,-0.0002083
 3,0.00016411,0.00003819,-0.00000454,-0.00001353,-0.00004220,-0.0000730
 5,0.00065487,-0.00212765,0.00049466,-0.00011160,0.00014887,0.00020964,
 -0.00005492,0.00005118,-0.00046383,-0.00012083,0.00006843,-0.00011576,
 0.00019962,-0.00006683,0.00079579,0.00075470,-0.00027881,-0.00094265,-
 0.00019474,-0.00042756,0.33863526,-0.00073863,0.00685572,-0.00001338,0
 .00010457,-0.00019740,0.00015140,-0.00054437,0.00193163,0.00012081,-0.
 00104334,0.00604852,0.00081080,-0.04397567,-0.04189269,-0.00621591,-0.
 00387639,0.00245467,-0.00120364,0.00019829,-0.00016823,0.00000605,-0.0
 0007795,-0.00001782,-0.00002375,0.00104870,-0.00388450,-0.00101556,-0.
 00022298,-0.00032583,0.00101802,0.00003999,0.00009540,-0.00001768,-0.0
 0008326,0.00035935,0.00002553,0.00017296,-0.00124406,-0.00005016,0.000
 70208,-0.00365257,-0.00016934,-0.00026127,0.00042784,-0.00003265,0.048
 56437,0.03283526,-0.00071886,0.00020663,-0.00553197,0.00030738,0.00008
 050,-0.00114007,-0.03101996,-0.00484137,-0.00049777,0.00283328,0.00064
 687,-0.00389953,-0.04607806,-0.00645000,-0.06845415,0.02317044,0.00350
 576,0.00751435,0.00045872,-0.00004165,-0.00031990,-0.00002080,-0.00000
 512,0.00003559,0.00201288,0.00077865,0.00139063,-0.00037574,-0.0004420
 9,0.00026695,-0.00028521,0.00008802,0.00006233,-0.00163692,-0.00024360
 ,-0.00018400,-0.00006802,-0.00004836,0.00019727,0.00045088,-0.00003845
 ,0.00104783,0.00132275,0.00021133,0.00050249,0.05034647,0.00682866,0.0
 6925081,0.00000535,0.00000136,0.00000097,0.00001023,0.00000526,0.00000
 649,-0.00000007,-0.00000308,-0.00001210,-0.00002346,0.00000645,0.00000
 982,0.00000322,-0.00000008,0.00001501,-0.00003359,0.00007010,-0.000056
 79,-0.00157930,-0.00201614,0.00166597,-0.04797426,0.00373079,0.0203902
 6,-0.00013733,-0.00032638,-0.00031390,-0.00010486,-0.00075132,0.000399
 78,-0.00015128,0.00122973,-0.00006561,0.00000127,-0.00000066,-0.000002
 06,0.00000126,-0.00000191,0.00000198,0.00000047,0.00000070,-0.00000028
 ,0.00002124,-0.00002169,0.00002387,0.00000462,0.00000434,-0.00000037,0
 .04754466,0.00001009,0.00000749,0.00002098,0.00000424,0.00000254,0.000
 00377,0.00000032,0.00000183,-0.00000738,-0.00000607,0.00000063,0.00003
 062,0.00001611,0.00001486,0.00003833,-0.00002533,0.00014665,-0.0002160
 5,-0.00262474,0.00182299,0.03640823,0.00426917,-0.04631875,-0.01015834
 ,-0.00174089,-0.00044268,-0.00044644,0.00044961,-0.00474961,0.00030333
 ,-0.00138620,0.00111417,-0.00383925,0.00000309,-0.00000339,0.00000589,
 0.00001097,-0.00000394,0.00001087,-0.00000156,-0.00000159,0.00000939,-
 0.00000700,0.00000563,0.00001320,0.00000952,-0.00000236,-0.00001377,-0
 .00117278,0.05033984,-0.00000146,0.00000040,-0.00000646,-0.00000272,0.
 00000998,0.00001079,-0.00000443,-0.00000225,0.00000564,0.00003142,0.00
 000791,-0.00003758,-0.00003321,-0.00000246,-0.00002233,0.00001906,-0.0
 0003062,0.00008230,0.00258856,-0.00111255,-0.01222203,0.01940750,-0.01
 027816,-0.31926318,0.00054239,-0.00004731,0.00026557,-0.00092837,0.002
 13445,-0.00011333,0.00011285,-0.00050608,0.00280352,-0.00000271,-0.000
 00129,-0.00000565,-0.00000564,-0.00000400,-0.00000615,0.00000276,-0.00
 000075,-0.00000916,-0.00000009,-0.00001735,-0.00002315,-0.00000287,-0.
 00000161,0.00000794,-0.02227857,0.01055273,0.34422555,-0.00000348,0.00
 000039,0.00002117,0.00001668,0.00001622,0.00000261,0.00001208,0.000014
 22,0.00000626,-0.00003745,0.00001017,0.00004066,0.00001824,-0.00000579
 ,0.00000299,0.00000055,-0.00010891,-0.00001666,-0.00004646,0.00038521,
 0.00253529,-0.21958016,-0.10541922,-0.07528339,0.00007064,0.00021553,0
 .00001011,0.00069455,-0.00102204,0.00039538,0.00028921,0.00079201,-0.0
 0034180,0.00000284,-0.00000267,0.00000127,0.00000800,-0.00000554,0.000
 00512,0.00000008,0.00000092,0.00000403,0.00002201,-0.00000656,0.000010
 40,0.00000800,-0.00000349,-0.00000729,0.00260660,0.00216744,0.00104219
 ,0.23552391,0.00001169,-0.00000570,0.00004776,-0.00000702,0.00002071,-
 0.00000056,-0.00000251,0.00004038,0.00000372,-0.00005906,0.00002938,0.
 00011422,0.00011258,-0.00000680,0.00009843,-0.00018644,-0.00040536,-0.
 00006061,-0.02739874,-0.01603305,-0.01268117,-0.10666566,-0.11442362,-
 0.04860505,0.00024735,0.00061598,0.00121118,0.00124924,-0.00310656,0.0
 0167911,0.00289852,0.00243389,0.00254549,0.00000432,-0.00000183,0.0000
 0474,0.00002081,-0.00000517,0.00002323,0.00000256,0.00000254,0.0000190
 2,-0.00001882,-0.00005840,-0.00007910,0.00000693,-0.00001823,-0.000011
 59,-0.00032562,-0.00051831,-0.00045758,0.11678812,0.12183634,-0.000019
 02,-0.00000176,-0.00002788,-0.00001475,-0.00003350,-0.00002016,0.00001
 453,-0.00002721,0.00000823,0.00002247,-0.00006169,-0.00004433,-0.00004
 034,-0.00001125,-0.00008341,0.00011681,0.00028967,0.00004114,0.0129731
 9,0.00861563,0.00479357,-0.07437002,-0.04694292,-0.07572660,-0.0003910
 0,-0.00025937,-0.00099439,-0.00041053,0.00185500,-0.00160070,-0.000058
 88,-0.00162587,-0.00025047,-0.00000338,0.00000554,0.00000182,-0.000010
 90,0.00000825,-0.00001089,-0.00000332,0.00000167,-0.00000778,-0.000027
 85,0.00006869,0.00003919,-0.00000746,0.00001259,0.00000577,-0.02782481
 ,-0.01699443,-0.01058367,0.08203942,0.04909832,0.08127931,-0.00000720,
 -0.00000560,-0.00001635,0.00001809,0.00000420,-0.00001289,0.00001200,-
 0.00000389,-0.00000582,-0.00006738,-0.00001306,0.00002634,-0.00000442,
 -0.00001464,-0.00003575,0.00003655,0.00003899,0.00006877,-0.00222165,-
 0.00262082,0.00055941,-0.23389094,0.10978406,0.05655595,0.00043449,0.0
 0032505,-0.00041067,0.00035670,-0.00074929,0.00032916,0.00257889,0.000
 25480,-0.00036591,0.00000008,0.00000136,-0.00000833,-0.00000383,0.0000
 0361,0.00000414,0.00000318,0.00000501,-0.00000933,0.00002678,-0.000019
 49,0.00002093,0.00000620,0.00000968,0.00000435,-0.00079900,-0.00039959
 ,0.00002614,-0.01948133,0.01359549,0.00761714,0.25196388,0.00000770,0.
 00000082,0.00001114,-0.00005606,-0.00000773,0.00001679,-0.00001333,-0.
 00000737,0.00001118,0.00014127,0.00002351,-0.00005530,0.00000364,-0.00
 000182,0.00000282,-0.00001741,0.00006042,-0.00005980,0.02866848,-0.006
 74793,-0.01502118,0.10699889,-0.11520841,-0.03066280,-0.00024624,0.000
 28685,0.00016938,-0.00210764,0.00129041,-0.00015446,0.00079831,-0.0094
 1976,0.00416271,-0.00000471,-0.00000027,0.00000897,0.00000214,-0.00000
 194,-0.00000316,-0.00000220,-0.00000207,0.00000530,-0.00008424,-0.0000
 1431,-0.00008609,-0.00001479,-0.00000614,0.00000288,-0.00040800,-0.000
 83989,-0.00037047,-0.01370100,0.00975412,0.00593047,-0.11955012,0.1215
 5193,-0.00000018,-0.00000149,-0.00000296,0.00000079,-0.00000782,-0.000
 00711,0.00000198,-0.00000192,-0.00000906,-0.00002803,-0.00001294,0.000
 01613,0.00002223,-0.00000089,0.00001170,-0.00002364,-0.00001290,-0.000
 01121,-0.01215528,0.00214550,0.00159414,0.05753750,-0.03246164,-0.0680
 8141,-0.00011269,-0.00043480,0.00011395,0.00032212,0.00002836,-0.00056
 229,-0.00012416,0.00426593,0.00146832,0.00000101,0.00000211,0.00000077
 ,0.00000008,0.00000313,0.00000103,-0.00000088,0.00000124,0.00000266,0.
 00000808,0.00000292,0.00001346,0.00000073,0.00000351,-0.00000090,0.028
 06846,-0.01626639,-0.00507467,-0.00969585,0.00716727,0.00266832,-0.064
 08923,0.03426594,0.06777365,0.00038459,0.00005236,-0.00003885,-0.00056
 786,-0.00017246,0.00062812,0.00009437,0.00009125,-0.00052596,0.0002719
 8,-0.00041127,-0.00305321,0.00063812,0.00023765,0.00234737,-0.01171999
 ,-0.00215772,0.00023807,-0.00012983,0.00080048,-0.00107891,-0.00020260
 ,-0.00006610,-0.00020102,-0.28604364,-0.07494362,-0.00769041,0.0045828
 2,-0.00119456,0.00287995,0.00025151,-0.00117016,0.00059659,0.00007115,
 -0.00000209,-0.00005260,-0.00009310,0.00004281,-0.00024013,0.00000454,
 -0.00000337,-0.00005573,0.00032851,0.00008086,0.00008694,0.00090283,0.
 00004430,-0.00065044,-0.00000647,0.00001090,-0.00003993,-0.00000392,-0
 .00006566,0.00003421,0.00001101,-0.00001724,-0.00001274,0.30614809,0.0
 0006245,0.00004839,-0.00003143,-0.00002521,-0.00000229,0.00020879,0.00
 001913,-0.00001763,0.00004368,0.00004134,0.00121387,-0.00018021,0.0002
 5058,-0.00025782,0.00094493,-0.00320312,0.00078548,-0.00118157,0.00472
 069,-0.00628353,-0.00443224,-0.00016989,0.00047275,0.00188372,-0.07015
 040,-0.07226841,-0.00701903,-0.03436874,-0.01982926,0.01218355,-0.0013
 4973,0.00296654,-0.00062426,0.00002153,0.00001499,0.00001706,0.0000402
 0,-0.00014313,-0.00000559,0.00001439,-0.00002758,0.00004243,-0.0001085
 6,-0.00011391,0.00002161,0.00025130,0.00020524,-0.00026619,-0.00008165
 ,-0.00053429,0.00022113,-0.00000554,0.00002978,-0.00007864,0.00004841,
 0.00000131,-0.00003875,0.08509779,0.08409491,0.00019020,-0.00000431,0.
 00003557,-0.00162530,0.00010535,0.00047101,0.00004687,0.00002528,-0.00
 006419,-0.00032118,-0.00018133,-0.00622574,-0.00207705,-0.00023664,0.0
 0172397,-0.03129520,-0.00936337,-0.00245207,-0.00005047,0.00243741,0.0
 0136894,0.00020869,-0.00013991,-0.00077328,-0.00773228,-0.00499024,-0.
 05064934,0.01752477,0.00885294,-0.00340190,0.00049610,0.00044971,-0.00
 053889,0.00008136,-0.00000974,-0.00002554,-0.00019749,0.00004162,-0.00
 049379,0.00002109,-0.00001053,-0.00000429,0.00004326,-0.00016885,0.000
 00847,0.00110256,0.00007604,-0.00031422,0.00003032,0.00026549,-0.00008
 554,0.00000482,0.00001175,0.00001941,-0.00006794,0.00000952,0.00005311
 ,0.00782963,-0.00387434,0.05946293,0.00031844,-0.00007107,-0.00044409,
 0.00020814,-0.00000544,0.00066764,-0.00003588,0.00039594,-0.00035086,0
 .00033415,-0.00007883,-0.00122340,-0.00093761,-0.00015918,-0.00072481,
 0.00868453,-0.00880949,-0.00735286,0.00085559,-0.00135603,0.00046340,-
 0.00029175,0.00068549,0.00018006,-0.13756417,0.09438004,0.08290100,0.0
 0109323,0.00114485,-0.00254646,-0.00179316,-0.00077668,0.00101105,-0.0
 0000276,0.00006636,0.00002240,-0.00002630,0.00001635,0.00001871,-0.000
 04259,0.00008200,-0.00013122,-0.00027428,-0.00000364,-0.00000501,0.000
 29970,0.00005407,-0.00008864,-0.00002332,0.00001675,0.00001620,0.00001
 276,0.00002389,-0.00001497,0.00007723,0.00024300,-0.00017776,-0.015163
 16,0.01888739,0.01617214,0.14374505,-0.00020746,-0.00003756,0.00030458
 ,-0.00019689,0.00007338,-0.00023677,0.00053023,-0.00030442,0.00021458,
 0.00041812,0.00063236,0.00050438,-0.00043766,-0.00012708,0.00005411,0.
 00015500,0.00190631,-0.00116271,0.00598412,-0.00275047,-0.00321233,0.0
 0003759,0.00019003,0.00023712,0.08672709,-0.14597776,-0.08896889,0.021
 04009,-0.03209540,-0.01239672,-0.00174571,0.00411126,0.00010851,-0.000
 00485,0.00002447,0.00002227,0.00001992,0.00000382,0.00000327,-0.000024
 50,-0.00000937,0.00000220,-0.00024483,-0.00020573,-0.00011071,0.000094
 72,0.00026589,-0.00001140,-0.00012646,0.00002571,0.00009083,-0.0000698
 2,0.00005608,-0.00002948,-0.00020491,0.00034199,-0.00005764,-0.0056734
 6,0.00907438,0.00707713,-0.10385990,0.16948392,-0.00008853,-0.00014720
 ,-0.00007043,0.00014994,0.00073903,-0.00042694,0.00033214,0.00124695,-
 0.00051273,0.00149765,0.00106893,0.00154995,-0.00275390,-0.00107530,-0
 .00282822,0.01630778,-0.01652731,-0.02097179,-0.00100751,0.00176604,0.
 00137788,0.00019909,-0.00030435,-0.00019037,0.08463831,-0.09852102,-0.
 13267645,-0.01019669,0.01247080,0.00951761,0.00105603,-0.00010851,-0.0
 0221396,-0.00003836,-0.00013314,0.00000774,-0.00001888,-0.00003495,0.0
 0003631,-0.00010175,0.00008069,-0.00033083,-0.00061575,-0.00066503,0.0
 0020875,0.00010079,-0.00049166,0.00002031,0.00007350,-0.00000408,-0.00
 005112,0.00000337,-0.00001834,0.00001512,-0.00002006,-0.00025402,0.000
 17071,-0.00152562,0.00269100,0.00168995,-0.08881359,0.09505757,0.14694
 426,-0.00008255,-0.00000252,0.00002166,-0.00006977,-0.00004689,-0.0001
 5966,-0.00004866,0.00002291,0.00009972,-0.00013756,-0.00012296,-0.0000
 3121,0.00038610,0.00012869,-0.00014507,-0.00048498,0.00027377,-0.00025
 065,-0.01751872,0.02333570,0.00087668,-0.00108157,-0.00081657,-0.00241
 523,0.00389734,-0.00575312,-0.00345013,-0.18571193,0.17479686,0.103590
 15,-0.00072558,-0.00262497,0.00727043,-0.00000722,-0.00001101,0.000018
 02,0.00000544,0.00002094,0.00000827,-0.00000388,-0.00001127,0.00005184
 ,-0.00005073,0.00005854,0.00006111,-0.00014444,-0.00011603,0.00004317,
 0.00063402,0.00039594,-0.00048908,-0.00013336,-0.00023197,0.00037946,0
 .00095068,-0.00064044,0.00045746,0.00024104,0.00000763,-0.00038491,0.0
 0052617,-0.00221042,0.00082202,0.19956015,-0.00013750,-0.00004042,0.00
 005313,-0.00001527,-0.00000892,-0.00015576,0.00006916,-0.00004427,0.00
 018836,0.00009007,0.00012237,0.00023692,0.00020578,0.00016459,0.000076
 75,-0.00043923,0.00068053,-0.00033254,-0.00731976,0.01003022,0.0002890
 6,-0.00155552,-0.00045888,0.00039156,0.01659954,-0.01531713,-0.0131708
 2,0.18456152,-0.26151714,-0.07430896,-0.00369808,0.00180681,0.00380833
 ,-0.00001444,0.00000680,-0.00000770,-0.00000300,0.00000394,0.00000452,
 0.00000867,0.00000075,0.00001178,0.00000445,-0.00003223,0.00005419,-0.
 00010510,-0.00006970,0.00006430,0.00018704,-0.00006754,-0.00018496,-0.
 00003968,-0.00023618,0.00018030,-0.00048925,-0.00105372,0.00141126,-0.
 00058070,0.00057021,-0.00037298,-0.00087589,-0.00468179,0.00316389,-0.
 18645281,0.27014173,0.00022026,0.00006605,-0.00013346,-0.00013915,-0.0
 0005795,0.00029230,-0.00008728,-0.00013943,-0.00028331,-0.00055112,-0.
 00049267,-0.00054529,0.00034197,-0.00030136,-0.00014545,0.00004280,0.0
 0061420,0.00178307,0.00238246,-0.02254791,-0.00531525,-0.00006969,-0.0
 0093046,-0.00172381,-0.01339808,0.01158994,0.00440604,0.11053706,-0.07
 414644,-0.07600993,0.00720622,0.00320982,0.00172583,0.00000994,0.00001
 264,0.00001797,0.00000037,0.00002360,-0.00001553,-0.00001657,0.0000062
 2,0.00000197,0.00000605,0.00008473,0.00000052,0.00002519,0.00018198,0.
 00004027,-0.00013192,0.00028330,0.00010268,-0.00078008,-0.00011024,0.0
 0047840,-0.00017007,0.00207017,-0.00013836,0.00052466,-0.00052565,0.00
 019540,0.00042105,0.00251010,-0.00126577,-0.10637406,0.07859937,0.0765
 3169\\0.00000927,0.00000198,-0.00000228,-0.00000171,-0.00000025,0.0000
 0913,-0.00000729,-0.00000091,-0.00000465,-0.00000631,-0.00000122,-0.00
 000511,-0.00000181,-0.00000109,0.00000676,0.00001103,0.00000304,-0.000
 00813,0.00000090,0.00000759,-0.00000309,-0.00000407,-0.00000484,0.0000
 0165,0.00000176,-0.00000108,0.00000767,-0.00000091,-0.00000342,0.00000
 031,-0.00000007,-0.00000116,-0.00000022,-0.00000024,-0.00000029,0.0000
 0006,0.00000047,0.00000006,-0.00000193,0.00000096,-0.00000010,0.000000
 37,0.00000067,0.00000017,0.00000149,0.00000013,0.00000035,0.00000079,0
 .00000150,0.00000034,-0.00000014,0.00000012,0.00000115,-0.00000134,0.0
 0000111,0.00000175,-0.00000004,-0.00000092,-0.00000289,-0.00000093,-0.
 00000398,-0.00000086,-0.00000094,-0.00000061,0.00000170,0.00000057\\\@


 NEVER LOSE YOUR IGNORANCE, IT CAN'T BE REPLACED.
   -- ANDY CAPP
 Job cpu time:  0 days  0 hours 51 minutes 17.5 seconds.
 File lengths (MBytes):  RWF=    104 Int=      0 D2E=      0 Chk=      3 Scr=      1
 Normal termination of Gaussian 09 at Fri Feb 16 19:02:51 2018.
