 Entering Gaussian System, Link 0=g09
 Initial command:
 /home/fb_chem/chemsoft/lx24-amd64/Gaussian_09_C.01_NBO_3.1_64_istanbul-64/g09/l1.exe /local/2397374.1.parallel_long/Gau-30613.inp -scrdir=/local/2397374.1.parallel_long/
 Entering Link 1 = /home/fb_chem/chemsoft/lx24-amd64/Gaussian_09_C.01_NBO_3.1_64_istanbul-64/g09/l1.exe PID=     30614.
  
 Copyright (c) 1988,1990,1992,1993,1995,1998,2003,2009,2011,
            Gaussian, Inc.  All Rights Reserved.
  
 This is part of the Gaussian(R) 09 program.  It is based on
 the Gaussian(R) 03 system (copyright 2003, Gaussian, Inc.),
 the Gaussian(R) 98 system (copyright 1998, Gaussian, Inc.),
 the Gaussian(R) 94 system (copyright 1995, Gaussian, Inc.),
 the Gaussian 92(TM) system (copyright 1992, Gaussian, Inc.),
 the Gaussian 90(TM) system (copyright 1990, Gaussian, Inc.),
 the Gaussian 88(TM) system (copyright 1988, Gaussian, Inc.),
 the Gaussian 86(TM) system (copyright 1986, Carnegie Mellon
 University), and the Gaussian 82(TM) system (copyright 1983,
 Carnegie Mellon University). Gaussian is a federally registered
 trademark of Gaussian, Inc.
  
 This software contains proprietary and confidential information,
 including trade secrets, belonging to Gaussian, Inc.
  
 This software is provided under written license and may be
 used, copied, transmitted, or stored only in accord with that
 written license.
  
 The following legend is applicable only to US Government
 contracts under FAR:
  
                    RESTRICTED RIGHTS LEGEND
  
 Use, reproduction and disclosure by the US Government is
 subject to restrictions as set forth in subparagraphs (a)
 and (c) of the Commercial Computer Software - Restricted
 Rights clause in FAR 52.227-19.
  
 Gaussian, Inc.
 340 Quinnipiac St., Bldg. 40, Wallingford CT 06492
  
  
 ---------------------------------------------------------------
 Warning -- This program may not be used in any manner that
 competes with the business of Gaussian, Inc. or will provide
 assistance to any competitor of Gaussian, Inc.  The licensee
 of this program is prohibited from giving any competitor of
 Gaussian, Inc. access to this program.  By using this program,
 the user acknowledges that Gaussian, Inc. is engaged in the
 business of creating and licensing software in the field of
 computational chemistry and represents and warrants to the
 licensee that it is not a competitor of Gaussian, Inc. and that
 it will not use this program in any manner prohibited above.
 ---------------------------------------------------------------
  

 Cite this work as:
 Gaussian 09, Revision C.01,
 M. J. Frisch, G. W. Trucks, H. B. Schlegel, G. E. Scuseria, 
 M. A. Robb, J. R. Cheeseman, G. Scalmani, V. Barone, B. Mennucci, 
 G. A. Petersson, H. Nakatsuji, M. Caricato, X. Li, H. P. Hratchian, 
 A. F. Izmaylov, J. Bloino, G. Zheng, J. L. Sonnenberg, M. Hada, 
 M. Ehara, K. Toyota, R. Fukuda, J. Hasegawa, M. Ishida, T. Nakajima, 
 Y. Honda, O. Kitao, H. Nakai, T. Vreven, J. A. Montgomery, Jr., 
 J. E. Peralta, F. Ogliaro, M. Bearpark, J. J. Heyd, E. Brothers, 
 K. N. Kudin, V. N. Staroverov, T. Keith, R. Kobayashi, J. Normand, 
 K. Raghavachari, A. Rendell, J. C. Burant, S. S. Iyengar, J. Tomasi, 
 M. Cossi, N. Rega, J. M. Millam, M. Klene, J. E. Knox, J. B. Cross, 
 V. Bakken, C. Adamo, J. Jaramillo, R. Gomperts, R. E. Stratmann, 
 O. Yazyev, A. J. Austin, R. Cammi, C. Pomelli, J. W. Ochterski, 
 R. L. Martin, K. Morokuma, V. G. Zakrzewski, G. A. Voth, 
 P. Salvador, J. J. Dannenberg, S. Dapprich, A. D. Daniels, 
 O. Farkas, J. B. Foresman, J. V. Ortiz, J. Cioslowski, 
 and D. J. Fox, Gaussian, Inc., Wallingford CT, 2010.
 
 ******************************************
 Gaussian 09:  AM64L-G09RevC.01 23-Sep-2011
                16-Feb-2018 
 ******************************************
 %nprocs=4
 Will use up to    4 processors via shared memory.
 %chk=frag28-conf1.chk
 ---------------------------------------------------------
 #B3LYP/6-31G* Integral=(Grid=UltraFine) freq Opt pop=none
 ---------------------------------------------------------
 1/14=-1,18=20,19=15,26=3,38=1/1,3;
 2/9=110,12=2,17=6,18=5,40=1/2;
 3/5=1,6=6,7=1,11=2,16=1,25=1,30=1,71=1,74=-5,75=-5/1,2,3;
 4//1;
 5/5=2,38=5/2;
 7//1,2,3,16;
 1/14=-1,18=20,19=15/3(2);
 2/9=110/2;
 99//99;
 2/9=110/2;
 3/5=1,6=6,7=1,11=2,16=1,25=1,30=1,71=1,74=-5,75=-5/1,2,3;
 4/5=5,16=3/1;
 5/5=2,38=5/2;
 7//1,2,3,16;
 1/14=-1,18=20,19=15/3(-5);
 2/9=110/2;
 99/9=1/99;
 -----------------------------
 Optimization for frag28-conf1
 -----------------------------
 Charge =  0 Multiplicity = 1
 Symbolic Z-Matrix:
 C                    -1.49213  -3.41473   4.53307 
 C                    -2.55705  -2.66714   4.99593 
 C                    -1.28582  -0.74205   5.03082 
 C                    -0.14691  -1.40076   4.57908 
 C                    -0.27745  -2.76776   4.32121 
 C                     0.87036   0.87559   2.41046 
 C                     1.15376   0.99488   0.938 
 C                     1.12119  -0.62771   4.36526 
 N                    -2.48322  -1.34151   5.24944 
 N                     1.31078  -0.29712   2.96896 
 O                     0.26977   1.74352   3.04085 
 Cl                    1.04344  -3.71095   3.72633 
 H                    -1.61345  -4.47556   4.34161 
 H                    -3.52409  -3.13125   5.17592 
 H                    -1.26643   0.32811   5.23385 
 H                     0.34698   0.51604   0.37689 
 H                     1.21218   2.05158   0.66303 
 H                     2.1043    0.51741   0.68371 
 H                     1.11569   0.29436   4.95884 
 H                     1.99207  -1.20222   4.6982 
 H                     1.76564  -0.98774   2.3783 
 

 GradGradGradGradGradGradGradGradGradGradGradGradGradGradGradGradGradGrad
 Berny optimization.
 Initialization pass.
                           ----------------------------
                           !    Initial Parameters    !
                           ! (Angstroms and Degrees)  !
 --------------------------                            --------------------------
 ! Name  Definition              Value          Derivative Info.                !
 --------------------------------------------------------------------------------
 ! R1    R(1,2)                  1.381          estimate D2E/DX2                !
 ! R2    R(1,5)                  1.3924         estimate D2E/DX2                !
 ! R3    R(1,13)                 1.0848         estimate D2E/DX2                !
 ! R4    R(2,9)                  1.3517         estimate D2E/DX2                !
 ! R5    R(2,14)                 1.0876         estimate D2E/DX2                !
 ! R6    R(3,4)                  1.3911         estimate D2E/DX2                !
 ! R7    R(3,9)                  1.3568         estimate D2E/DX2                !
 ! R8    R(3,15)                 1.0894         estimate D2E/DX2                !
 ! R9    R(4,5)                  1.3972         estimate D2E/DX2                !
 ! R10   R(4,8)                  1.5005         estimate D2E/DX2                !
 ! R11   R(5,12)                 1.7287         estimate D2E/DX2                !
 ! R12   R(6,7)                  1.5042         estimate D2E/DX2                !
 ! R13   R(6,10)                 1.3716         estimate D2E/DX2                !
 ! R14   R(6,11)                 1.2294         estimate D2E/DX2                !
 ! R15   R(7,16)                 1.0932         estimate D2E/DX2                !
 ! R16   R(7,17)                 1.0935         estimate D2E/DX2                !
 ! R17   R(7,18)                 1.0937         estimate D2E/DX2                !
 ! R18   R(8,10)                 1.4474         estimate D2E/DX2                !
 ! R19   R(8,19)                 1.0966         estimate D2E/DX2                !
 ! R20   R(8,20)                 1.0951         estimate D2E/DX2                !
 ! R21   R(10,21)                1.0162         estimate D2E/DX2                !
 ! A1    A(2,1,5)              118.1736         estimate D2E/DX2                !
 ! A2    A(2,1,13)             120.1525         estimate D2E/DX2                !
 ! A3    A(5,1,13)             121.6736         estimate D2E/DX2                !
 ! A4    A(1,2,9)              123.4805         estimate D2E/DX2                !
 ! A5    A(1,2,14)             120.6691         estimate D2E/DX2                !
 ! A6    A(9,2,14)             115.8501         estimate D2E/DX2                !
 ! A7    A(4,3,9)              124.4474         estimate D2E/DX2                !
 ! A8    A(4,3,15)             120.7377         estimate D2E/DX2                !
 ! A9    A(9,3,15)             114.8146         estimate D2E/DX2                !
 ! A10   A(3,4,5)              116.5338         estimate D2E/DX2                !
 ! A11   A(3,4,8)              119.6201         estimate D2E/DX2                !
 ! A12   A(5,4,8)              123.8296         estimate D2E/DX2                !
 ! A13   A(1,5,4)              120.5309         estimate D2E/DX2                !
 ! A14   A(1,5,12)             117.7368         estimate D2E/DX2                !
 ! A15   A(4,5,12)             121.7316         estimate D2E/DX2                !
 ! A16   A(7,6,10)             113.9484         estimate D2E/DX2                !
 ! A17   A(7,6,11)             122.5473         estimate D2E/DX2                !
 ! A18   A(10,6,11)            123.4839         estimate D2E/DX2                !
 ! A19   A(6,7,16)             109.1877         estimate D2E/DX2                !
 ! A20   A(6,7,17)             109.4429         estimate D2E/DX2                !
 ! A21   A(6,7,18)             110.8991         estimate D2E/DX2                !
 ! A22   A(16,7,17)            109.4911         estimate D2E/DX2                !
 ! A23   A(16,7,18)            109.3198         estimate D2E/DX2                !
 ! A24   A(17,7,18)            108.4811         estimate D2E/DX2                !
 ! A25   A(4,8,10)             111.4601         estimate D2E/DX2                !
 ! A26   A(4,8,19)             110.5993         estimate D2E/DX2                !
 ! A27   A(4,8,20)             111.0066         estimate D2E/DX2                !
 ! A28   A(10,8,19)            109.3165         estimate D2E/DX2                !
 ! A29   A(10,8,20)            107.9952         estimate D2E/DX2                !
 ! A30   A(19,8,20)            106.2917         estimate D2E/DX2                !
 ! A31   A(2,9,3)              116.8263         estimate D2E/DX2                !
 ! A32   A(6,10,8)             123.0975         estimate D2E/DX2                !
 ! A33   A(6,10,21)            119.2169         estimate D2E/DX2                !
 ! A34   A(8,10,21)            117.6535         estimate D2E/DX2                !
 ! D1    D(5,1,2,9)              0.2266         estimate D2E/DX2                !
 ! D2    D(5,1,2,14)          -179.9669         estimate D2E/DX2                !
 ! D3    D(13,1,2,9)          -179.621          estimate D2E/DX2                !
 ! D4    D(13,1,2,14)            0.1854         estimate D2E/DX2                !
 ! D5    D(2,1,5,4)              0.3214         estimate D2E/DX2                !
 ! D6    D(2,1,5,12)          -179.3859         estimate D2E/DX2                !
 ! D7    D(13,1,5,4)          -179.8333         estimate D2E/DX2                !
 ! D8    D(13,1,5,12)            0.4594         estimate D2E/DX2                !
 ! D9    D(1,2,9,3)             -0.1448         estimate D2E/DX2                !
 ! D10   D(14,2,9,3)          -179.9598         estimate D2E/DX2                !
 ! D11   D(9,3,4,5)              1.017          estimate D2E/DX2                !
 ! D12   D(9,3,4,8)            179.5973         estimate D2E/DX2                !
 ! D13   D(15,3,4,5)          -178.7627         estimate D2E/DX2                !
 ! D14   D(15,3,4,8)            -0.1824         estimate D2E/DX2                !
 ! D15   D(4,3,9,2)             -0.5088         estimate D2E/DX2                !
 ! D16   D(15,3,9,2)           179.2827         estimate D2E/DX2                !
 ! D17   D(3,4,5,1)             -0.8914         estimate D2E/DX2                !
 ! D18   D(3,4,5,12)           178.804          estimate D2E/DX2                !
 ! D19   D(8,4,5,1)           -179.4057         estimate D2E/DX2                !
 ! D20   D(8,4,5,12)             0.2897         estimate D2E/DX2                !
 ! D21   D(3,4,8,10)           -99.3579         estimate D2E/DX2                !
 ! D22   D(3,4,8,19)            22.4758         estimate D2E/DX2                !
 ! D23   D(3,4,8,20)           140.2089         estimate D2E/DX2                !
 ! D24   D(5,4,8,10)            79.113          estimate D2E/DX2                !
 ! D25   D(5,4,8,19)          -159.0533         estimate D2E/DX2                !
 ! D26   D(5,4,8,20)           -41.3202         estimate D2E/DX2                !
 ! D27   D(10,6,7,16)           85.8847         estimate D2E/DX2                !
 ! D28   D(10,6,7,17)         -154.281          estimate D2E/DX2                !
 ! D29   D(10,6,7,18)          -34.636          estimate D2E/DX2                !
 ! D30   D(11,6,7,16)          -92.5248         estimate D2E/DX2                !
 ! D31   D(11,6,7,17)           27.3094         estimate D2E/DX2                !
 ! D32   D(11,6,7,18)          146.9544         estimate D2E/DX2                !
 ! D33   D(7,6,10,8)          -178.8958         estimate D2E/DX2                !
 ! D34   D(7,6,10,21)           -1.0065         estimate D2E/DX2                !
 ! D35   D(11,6,10,8)           -0.5033         estimate D2E/DX2                !
 ! D36   D(11,6,10,21)         177.3861         estimate D2E/DX2                !
 ! D37   D(4,8,10,6)            92.0126         estimate D2E/DX2                !
 ! D38   D(4,8,10,21)          -85.9076         estimate D2E/DX2                !
 ! D39   D(19,8,10,6)          -30.5608         estimate D2E/DX2                !
 ! D40   D(19,8,10,21)         151.5189         estimate D2E/DX2                !
 ! D41   D(20,8,10,6)         -145.8007         estimate D2E/DX2                !
 ! D42   D(20,8,10,21)          36.2791         estimate D2E/DX2                !
 --------------------------------------------------------------------------------
 Trust Radius=3.00D-01 FncErr=1.00D-07 GrdErr=1.00D-06
 Number of steps in this run=    107 maximum allowed number of steps=    126.
 GradGradGradGradGradGradGradGradGradGradGradGradGradGradGradGradGradGrad

                          Input orientation:                          
 ---------------------------------------------------------------------
 Center     Atomic      Atomic             Coordinates (Angstroms)
 Number     Number       Type             X           Y           Z
 ---------------------------------------------------------------------
      1          6           0       -1.492129   -3.414727    4.533072
      2          6           0       -2.557045   -2.667138    4.995934
      3          6           0       -1.285821   -0.742047    5.030817
      4          6           0       -0.146913   -1.400759    4.579075
      5          6           0       -0.277455   -2.767755    4.321210
      6          6           0        0.870365    0.875593    2.410463
      7          6           0        1.153763    0.994881    0.938005
      8          6           0        1.121186   -0.627710    4.365263
      9          7           0       -2.483224   -1.341513    5.249440
     10          7           0        1.310781   -0.297123    2.968963
     11          8           0        0.269772    1.743515    3.040853
     12         17           0        1.043440   -3.710949    3.726331
     13          1           0       -1.613447   -4.475558    4.341612
     14          1           0       -3.524091   -3.131253    5.175919
     15          1           0       -1.266435    0.328112    5.233850
     16          1           0        0.346976    0.516036    0.376894
     17          1           0        1.212184    2.051580    0.663030
     18          1           0        2.104299    0.517405    0.683708
     19          1           0        1.115686    0.294355    4.958838
     20          1           0        1.992065   -1.202217    4.698199
     21          1           0        1.765639   -0.987745    2.378305
 ---------------------------------------------------------------------
                    Distance matrix (angstroms):
                    1          2          3          4          5
     1  C    0.000000
     2  C    1.381005   0.000000
     3  C    2.726450   2.307207   0.000000
     4  C    2.422352   2.754310   1.391073   0.000000
     5  C    1.392441   2.379476   2.371463   1.397216   0.000000
     6  C    5.337948   5.566214   3.759276   3.304469   4.271116
     7  C    6.274543   6.606608   5.071449   4.548433   5.258507
     8  C    3.824269   4.252810   2.499944   1.500465   2.556937
     9  N    2.407004   1.351664   1.356809   2.431306   2.785892
    10  N    4.474617   4.968467   3.345376   2.436257   3.233433
    11  O    5.651414   5.591699   3.543705   3.525084   4.721264
    12  Cl   2.677254   3.957894   3.992683   2.735158   1.728659
    13  H    1.084776   2.142171   3.810702   3.414894   2.168382
    14  H    2.149995   1.087646   3.277074   3.841375   3.376878
    15  H    3.814560   3.270138   1.089421   2.161262   3.375705
    16  H    6.008912   6.316761   5.089970   4.645036   5.170187
    17  H    7.222953   7.432863   5.755167   5.394553   6.231156
    18  H    6.573702   7.103854   5.654776   4.890930   5.449445
    19  H    4.554038   4.718132   2.616591   2.147508   3.424022
    20  H    4.130627   4.788428   3.326700   2.151473   2.782760
    21  H    4.598513   5.325218   4.050629   2.944797   3.334299
                    6          7          8          9         10
     6  C    0.000000
     7  C    1.504220   0.000000
     8  C    2.478724   3.792092   0.000000
     9  N    4.921576   6.105317   3.779293   0.000000
    10  N    1.371551   2.412203   1.447372   4.548165   0.000000
    11  O    1.229387   2.400805   2.846344   4.687670   2.291958
    12  Cl   4.774708   5.470993   3.149705   4.513474   3.507034
    13  H    6.207534   7.011968   4.720668   3.376818   5.281534
    14  H    6.558491   7.541035   5.338866   2.071709   6.023200
    15  H    3.582899   4.975563   2.714548   2.066027   3.487503
    16  H    2.130403   1.093179   4.220739   5.933147   2.882528
    17  H    2.133848   1.093452   4.570930   6.797374   3.292940
    18  H    2.152341   1.093695   3.978900   6.734008   2.552552
    19  H    2.625306   4.081578   1.096616   3.963921   2.085068
    20  H    3.287741   4.434980   1.095142   4.511262   2.067268
    21  H    2.067505   2.525799   2.119657   5.140176   1.016234
                   11         12         13         14         15
    11  O    0.000000
    12  Cl   5.551543   0.000000
    13  H    6.626867   2.832357   0.000000
    14  H    6.535692   4.826975   2.480682   0.000000
    15  H    3.028620   4.891028   4.898138   4.131292   0.000000
    16  H    2.934168   5.437940   6.669203   7.163694   5.121370
    17  H    2.576254   6.528325   8.007477   8.346270   5.477800
    18  H    3.228772   5.316198   7.220220   8.072883   5.665816
    19  H    2.548392   4.191272   5.530028   5.771434   2.398181
    20  H    3.793472   2.852745   4.882789   5.863222   3.639595
    21  H    3.183767   3.123234   5.238095   6.356297   4.367962
                   16         17         18         19         20
    16  H    0.000000
    17  H    1.785596   0.000000
    18  H    1.783905   1.774820   0.000000
    19  H    4.651264   4.642318   4.393614   0.000000
    20  H    4.932786   5.241946   4.368734   1.753768   0.000000
    21  H    2.877430   3.533550   2.291686   2.953874   2.340764
                   21
    21  H    0.000000
 Stoichiometry    C8H9ClN2O
 Framework group  C1[X(C8H9ClN2O)]
 Deg. of freedom    57
 Full point group                 C1      NOp   1
 Largest Abelian subgroup         C1      NOp   1
 Largest concise Abelian subgroup C1      NOp   1
                         Standard orientation:                         
 ---------------------------------------------------------------------
 Center     Atomic      Atomic             Coordinates (Angstroms)
 Number     Number       Type             X           Y           Z
 ---------------------------------------------------------------------
      1          6           0        2.612246   -0.072353   -0.628853
      2          6           0        2.697863   -1.450084   -0.670108
      3          6           0        0.703211   -1.681788    0.466060
      4          6           0        0.523781   -0.306708    0.575797
      5          6           0        1.508937    0.499263   -0.000477
      6          6           0       -2.701315   -0.206113   -0.137049
      7          6           0       -3.621390    0.416095   -1.151444
      8          6           0       -0.699894    0.229326    1.258938
      9          7           0        1.765966   -2.271378   -0.137154
     10          7           0       -1.707676    0.631643    0.301127
     11          8           0       -2.819383   -1.371587    0.235943
     12         17           0        1.405000    2.224518    0.030413
     13          1           0        3.389195    0.535619   -1.079917
     14          1           0        3.542350   -1.939335   -1.150162
     15          1           0       -0.033284   -2.373666    0.873146
     16          1           0       -3.189509    0.297532   -2.148671
     17          1           0       -4.594407   -0.081353   -1.113751
     18          1           0       -3.767713    1.480048   -0.944656
     19          1           0       -1.123166   -0.521289    1.937160
     20          1           0       -0.454854    1.099059    1.877692
     21          1           0       -1.647211    1.571592   -0.080412
 ---------------------------------------------------------------------
 Rotational constants (GHZ):      1.1627076      0.5720795      0.4302264
 Standard basis: 6-31G(d) (6D, 7F)
 There are   202 symmetry adapted basis functions of A   symmetry.
 Integral buffers will be    131072 words long.
 Raffenetti 2 integral format.
 Two-electron integral symmetry is turned on.
   202 basis functions,   396 primitive gaussians,   202 cartesian basis functions
    48 alpha electrons       48 beta electrons
       nuclear repulsion energy       762.2096443194 Hartrees.
 NAtoms=   21 NActive=   21 NUniq=   21 SFac= 1.00D+00 NAtFMM=   60 NAOKFM=F Big=F
 One-electron integrals computed using PRISM.
 NBasis=   202 RedAO= T  NBF=   202
 NBsUse=   202 1.00D-06 NBFU=   202
 Harris functional with IExCor=  402 diagonalized for initial guess.
 ExpMin= 1.43D-01 ExpMax= 2.52D+04 ExpMxC= 3.78D+03 IAcc=3 IRadAn=         5 AccDes= 0.00D+00
 HarFok:  IExCor=  402 AccDes= 0.00D+00 IRadAn=         5 IDoV= 1
 ScaDFX=  1.000000  1.000000  1.000000  1.000000
 FoFCou: FMM=F IPFlag=           0 FMFlag=      100000 FMFlg1=           0
         NFxFlg=           0 DoJE=T BraDBF=F KetDBF=T FulRan=T
         Omega=  0.000000  0.000000  1.000000  0.000000  0.000000 ICntrl=     500 IOpCl=  0
         NMat0=    1 NMatS0=    1 NMatT0=    0 NMatD0=    1 NMtDS0=    0 NMtDT0=    0
         I1Cent=           4 NGrid=           0.
 Petite list used in FoFCou.
 Initial guess orbital symmetries:
       Occupied  (A) (A) (A) (A) (A) (A) (A) (A) (A) (A) (A) (A)
                 (A) (A) (A) (A) (A) (A) (A) (A) (A) (A) (A) (A)
                 (A) (A) (A) (A) (A) (A) (A) (A) (A) (A) (A) (A)
                 (A) (A) (A) (A) (A) (A) (A) (A) (A) (A) (A) (A)
       Virtual   (A) (A) (A) (A) (A) (A) (A) (A) (A) (A) (A) (A)
                 (A) (A) (A) (A) (A) (A) (A) (A) (A) (A) (A) (A)
                 (A) (A) (A) (A) (A) (A) (A) (A) (A) (A) (A) (A)
                 (A) (A) (A) (A) (A) (A) (A) (A) (A) (A) (A) (A)
                 (A) (A) (A) (A) (A) (A) (A) (A) (A) (A) (A) (A)
                 (A) (A) (A) (A) (A) (A) (A) (A) (A) (A) (A) (A)
                 (A) (A) (A) (A) (A) (A) (A) (A) (A) (A) (A) (A)
                 (A) (A) (A) (A) (A) (A) (A) (A) (A) (A) (A) (A)
                 (A) (A) (A) (A) (A) (A) (A) (A) (A) (A) (A) (A)
                 (A) (A) (A) (A) (A) (A) (A) (A) (A) (A) (A) (A)
                 (A) (A) (A) (A) (A) (A) (A) (A) (A) (A) (A) (A)
                 (A) (A) (A) (A) (A) (A) (A) (A) (A) (A) (A) (A)
                 (A) (A) (A) (A) (A) (A) (A) (A) (A) (A)
 The electronic state of the initial guess is 1-A.
 Requested convergence on RMS density matrix=1.00D-08 within 128 cycles.
 Requested convergence on MAX density matrix=1.00D-06.
 Requested convergence on             energy=1.00D-06.
 No special actions if energy rises.
 Integral accuracy reduced to 1.0D-05 until final iterations.
 Initial convergence to 1.0D-05 achieved.  Increase integral accuracy.
 SCF Done:  E(RB3LYP) =  -955.204147853     A.U. after   15 cycles
             Convg  =    0.6389D-08             -V/T =  2.0063
 Calling FoFJK, ICntrl=      2127 FMM=F ISym2X=0 I1Cent= 0 IOpClX= 0 NMat=1 NMatS=1 NMatT=0.
 ***** Axes restored to original set *****
 -------------------------------------------------------------------
 Center     Atomic                   Forces (Hartrees/Bohr)
 Number     Number              X              Y              Z
 -------------------------------------------------------------------
      1        6           0.003164641   -0.005502666   -0.002378582
      2        6          -0.005101854    0.021320406    0.005891946
      3        6          -0.027349227   -0.007684848    0.007238928
      4        6           0.001311267   -0.001772385    0.003450154
      5        6          -0.011570413    0.002175960    0.004002858
      6        6          -0.006446339    0.004393811    0.007771364
      7        6           0.005498914    0.002958349   -0.004721782
      8        6           0.007146019   -0.000184346    0.003637896
      9        7           0.011739957   -0.003402423   -0.004566887
     10        7           0.007811372    0.003394620   -0.005960717
     11        8           0.004538335   -0.007444748    0.000882382
     12       17           0.013295894   -0.005782661   -0.005068710
     13        1           0.002235092   -0.000121740   -0.000572920
     14        1          -0.000053573   -0.000521080    0.000030212
     15        1           0.002980041   -0.001271559   -0.001392915
     16        1          -0.000446310    0.000176341   -0.003020017
     17        1          -0.002395385   -0.001404598    0.000208099
     18        1          -0.000098102   -0.001594812   -0.003500342
     19        1          -0.002868158   -0.000399069   -0.004701695
     20        1          -0.000738701   -0.001344789   -0.000211508
     21        1          -0.002653472    0.004012238    0.002982236
 -------------------------------------------------------------------
 Cartesian Forces:  Max     0.027349227 RMS     0.006355715

 GradGradGradGradGradGradGradGradGradGradGradGradGradGradGradGradGradGrad
 Berny optimization.
 Internal  Forces:  Max     0.016083800 RMS     0.004289499
 Search for a local minimum.
 Step number   1 out of a maximum of  107
 All quantities printed in internal units (Hartrees-Bohrs-Radians)
 Mixed Optimization -- RFO/linear search
 Second derivative matrix not updated -- first step.
 ITU=  0
     Eigenvalues ---    0.00710   0.00760   0.01065   0.01262   0.01476
     Eigenvalues ---    0.01570   0.02068   0.02153   0.02170   0.02224
     Eigenvalues ---    0.02240   0.02259   0.02312   0.02337   0.05183
     Eigenvalues ---    0.06595   0.07352   0.07511   0.09959   0.13240
     Eigenvalues ---    0.15993   0.16000   0.16000   0.16000   0.16000
     Eigenvalues ---    0.16000   0.16000   0.21935   0.22002   0.22342
     Eigenvalues ---    0.23241   0.24577   0.24991   0.24991   0.25000
     Eigenvalues ---    0.25000   0.31939   0.32329   0.32651   0.34059
     Eigenvalues ---    0.34225   0.34389   0.34417   0.34448   0.34880
     Eigenvalues ---    0.35086   0.35423   0.38591   0.43336   0.44158
     Eigenvalues ---    0.44944   0.46756   0.48280   0.50680   0.52203
     Eigenvalues ---    0.53693   0.91342
 RFO step:  Lambda=-5.72481741D-03 EMin= 7.10129892D-03
 Linear search not attempted -- first point.
 Iteration  1 RMS(Cart)=  0.05591446 RMS(Int)=  0.00105124
 Iteration  2 RMS(Cart)=  0.00164862 RMS(Int)=  0.00011828
 Iteration  3 RMS(Cart)=  0.00000150 RMS(Int)=  0.00011828
 Iteration  4 RMS(Cart)=  0.00000000 RMS(Int)=  0.00011828
 Variable       Old X    -DE/DX   Delta X   Delta X   Delta X     New X
                                 (Linear)    (Quad)   (Total)
    R1        2.60972   0.01161   0.00000   0.02379   0.02377   2.63349
    R2        2.63133  -0.00005   0.00000   0.00148   0.00150   2.63283
    R3        2.04993  -0.00003   0.00000  -0.00008  -0.00008   2.04985
    R4        2.55428  -0.01200   0.00000  -0.02272  -0.02274   2.53153
    R5        2.05535   0.00027   0.00000   0.00077   0.00077   2.05613
    R6        2.62875   0.00961   0.00000   0.01967   0.01968   2.64843
    R7        2.56400  -0.01608   0.00000  -0.03108  -0.03109   2.53290
    R8        2.05871  -0.00146   0.00000  -0.00411  -0.00411   2.05460
    R9        2.64036   0.00018   0.00000   0.00162   0.00165   2.64200
   R10        2.83547   0.01017   0.00000   0.03090   0.03090   2.86637
   R11        3.26669   0.01506   0.00000   0.04533   0.04533   3.31202
   R12        2.84256   0.01129   0.00000   0.03474   0.03474   2.87730
   R13        2.59186  -0.00173   0.00000  -0.00338  -0.00338   2.58848
   R14        2.32321  -0.00702   0.00000  -0.00764  -0.00764   2.31557
   R15        2.06581   0.00180   0.00000   0.00515   0.00515   2.07096
   R16        2.06632  -0.00154   0.00000  -0.00439  -0.00439   2.06193
   R17        2.06678   0.00142   0.00000   0.00407   0.00407   2.07086
   R18        2.73514   0.00696   0.00000   0.01776   0.01776   2.75290
   R19        2.07230  -0.00287   0.00000  -0.00828  -0.00828   2.06403
   R20        2.06952   0.00005   0.00000   0.00015   0.00015   2.06967
   R21        1.92040  -0.00565   0.00000  -0.01241  -0.01241   1.90800
    A1        2.06252  -0.00162   0.00000  -0.00290  -0.00290   2.05962
    A2        2.09706   0.00317   0.00000   0.01573   0.01573   2.11279
    A3        2.12361  -0.00156   0.00000  -0.01283  -0.01283   2.11077
    A4        2.15514   0.00241   0.00000   0.00898   0.00894   2.16409
    A5        2.10607  -0.00165   0.00000  -0.00717  -0.00715   2.09893
    A6        2.02196  -0.00076   0.00000  -0.00181  -0.00179   2.02017
    A7        2.17202   0.00453   0.00000   0.01592   0.01590   2.18792
    A8        2.10727  -0.00556   0.00000  -0.02786  -0.02788   2.07939
    A9        2.00389   0.00103   0.00000   0.01189   0.01186   2.01575
   A10        2.03390  -0.00183   0.00000  -0.00564  -0.00559   2.02830
   A11        2.08776   0.00365   0.00000   0.01350   0.01348   2.10124
   A12        2.16123  -0.00182   0.00000  -0.00789  -0.00791   2.15332
   A13        2.10366  -0.00358   0.00000  -0.00875  -0.00870   2.09496
   A14        2.05490   0.00672   0.00000   0.02367   0.02365   2.07854
   A15        2.12462  -0.00314   0.00000  -0.01492  -0.01494   2.10967
   A16        1.98877   0.00640   0.00000   0.02512   0.02509   2.01387
   A17        2.13885   0.00281   0.00000   0.01107   0.01105   2.14990
   A18        2.15520  -0.00920   0.00000  -0.03588  -0.03591   2.11929
   A19        1.90568   0.00226   0.00000   0.00961   0.00949   1.91517
   A20        1.91014  -0.00158   0.00000  -0.00999  -0.01006   1.90008
   A21        1.93555   0.00453   0.00000   0.03189   0.03173   1.96728
   A22        1.91098  -0.00215   0.00000  -0.02216  -0.02218   1.88880
   A23        1.90799  -0.00324   0.00000  -0.01848  -0.01868   1.88931
   A24        1.89335   0.00008   0.00000   0.00840   0.00830   1.90165
   A25        1.94534   0.00926   0.00000   0.03902   0.03888   1.98422
   A26        1.93032  -0.00292   0.00000  -0.02404  -0.02372   1.90660
   A27        1.93743  -0.00287   0.00000  -0.00272  -0.00328   1.93415
   A28        1.90793  -0.00556   0.00000  -0.04356  -0.04326   1.86468
   A29        1.88487  -0.00125   0.00000   0.00974   0.00937   1.89424
   A30        1.85514   0.00299   0.00000   0.02052   0.02060   1.87574
   A31        2.03900   0.00009   0.00000  -0.00752  -0.00758   2.03142
   A32        2.14846  -0.00515   0.00000  -0.02303  -0.02317   2.12528
   A33        2.08073   0.00224   0.00000   0.00903   0.00889   2.08962
   A34        2.05344   0.00289   0.00000   0.01302   0.01288   2.06632
    D1        0.00396   0.00001   0.00000   0.00019   0.00022   0.00418
    D2       -3.14102   0.00006   0.00000   0.00217   0.00219  -3.13883
    D3       -3.13498  -0.00004   0.00000  -0.00210  -0.00211  -3.13709
    D4        0.00324   0.00001   0.00000  -0.00012  -0.00015   0.00309
    D5        0.00561   0.00000   0.00000  -0.00062  -0.00064   0.00497
    D6       -3.13087   0.00001   0.00000  -0.00088  -0.00093  -3.13181
    D7       -3.13868   0.00006   0.00000   0.00175   0.00175  -3.13694
    D8        0.00802   0.00007   0.00000   0.00149   0.00145   0.00946
    D9       -0.00253  -0.00011   0.00000  -0.00346  -0.00348  -0.00601
   D10       -3.14089  -0.00015   0.00000  -0.00534  -0.00535   3.13694
   D11        0.01775  -0.00019   0.00000  -0.00793  -0.00796   0.00979
   D12        3.13456  -0.00024   0.00000  -0.00928  -0.00932   3.12525
   D13       -3.12000   0.00019   0.00000   0.00670   0.00660  -3.11340
   D14       -0.00318   0.00015   0.00000   0.00534   0.00524   0.00206
   D15       -0.00888   0.00021   0.00000   0.00754   0.00758  -0.00130
   D16        3.12907  -0.00017   0.00000  -0.00638  -0.00659   3.12248
   D17       -0.01556   0.00017   0.00000   0.00441   0.00433  -0.01123
   D18        3.12072   0.00019   0.00000   0.00479   0.00475   3.12547
   D19       -3.13122   0.00014   0.00000   0.00549   0.00540  -3.12582
   D20        0.00506   0.00015   0.00000   0.00587   0.00582   0.01088
   D21       -1.73412   0.00192   0.00000   0.03355   0.03365  -1.70047
   D22        0.39228  -0.00085   0.00000  -0.01194  -0.01198   0.38029
   D23        2.44711  -0.00079   0.00000  -0.00336  -0.00340   2.44370
   D24        1.38078   0.00188   0.00000   0.03216   0.03226   1.41304
   D25       -2.77600  -0.00089   0.00000  -0.01333  -0.01338  -2.78938
   D26       -0.72117  -0.00083   0.00000  -0.00475  -0.00480  -0.72597
   D27        1.49897   0.00093   0.00000   0.01886   0.01900   1.51797
   D28       -2.69271  -0.00127   0.00000  -0.00838  -0.00833  -2.70105
   D29       -0.60451   0.00065   0.00000   0.01551   0.01554  -0.58897
   D30       -1.61486   0.00080   0.00000   0.00755   0.00754  -1.60732
   D31        0.47664  -0.00140   0.00000  -0.01969  -0.01979   0.45685
   D32        2.56484   0.00052   0.00000   0.00420   0.00409   2.56893
   D33       -3.12232   0.00078   0.00000   0.03354   0.03363  -3.08869
   D34       -0.01757   0.00013   0.00000   0.00186   0.00199  -0.01558
   D35       -0.00878   0.00113   0.00000   0.04583   0.04570   0.03692
   D36        3.09597   0.00048   0.00000   0.01415   0.01406   3.11003
   D37        1.60592  -0.00129   0.00000  -0.03866  -0.03896   1.56697
   D38       -1.49937  -0.00064   0.00000  -0.00738  -0.00766  -1.50703
   D39       -0.53339   0.00007   0.00000  -0.00421  -0.00416  -0.53754
   D40        2.64450   0.00072   0.00000   0.02707   0.02714   2.67165
   D41       -2.54470   0.00013   0.00000  -0.01089  -0.01068  -2.55538
   D42        0.63319   0.00079   0.00000   0.02039   0.02062   0.65381
         Item               Value     Threshold  Converged?
 Maximum Force            0.016084     0.000450     NO 
 RMS     Force            0.004289     0.000300     NO 
 Maximum Displacement     0.158620     0.001800     NO 
 RMS     Displacement     0.055708     0.001200     NO 
 Predicted change in Energy=-2.952509D-03
 GradGradGradGradGradGradGradGradGradGradGradGradGradGradGradGradGradGrad

                          Input orientation:                          
 ---------------------------------------------------------------------
 Center     Atomic      Atomic             Coordinates (Angstroms)
 Number     Number       Type             X           Y           Z
 ---------------------------------------------------------------------
      1          6           0       -1.506707   -3.432798    4.580202
      2          6           0       -2.579050   -2.652633    5.008573
      3          6           0       -1.315995   -0.757353    5.000451
      4          6           0       -0.158878   -1.425598    4.577730
      5          6           0       -0.284295   -2.801156    4.361495
      6          6           0        0.898580    0.863269    2.413186
      7          6           0        1.157639    1.046654    0.924034
      8          6           0        1.128657   -0.658273    4.344927
      9          7           0       -2.507368   -1.331497    5.218491
     10          7           0        1.358446   -0.310439    2.949079
     11          8           0        0.305998    1.689147    3.097470
     12         17           0        1.079596   -3.752662    3.808139
     13          1           0       -1.619381   -4.499883    4.421215
     14          1           0       -3.549604   -3.108554    5.193030
     15          1           0       -1.278976    0.317884    5.157303
     16          1           0        0.343398    0.592378    0.348145
     17          1           0        1.180673    2.114017    0.698723
     18          1           0        2.101447    0.593920    0.599769
     19          1           0        1.094546    0.279843    4.903277
     20          1           0        1.991522   -1.226280    4.708721
     21          1           0        1.819350   -0.985005    2.355818
 ---------------------------------------------------------------------
                    Distance matrix (angstroms):
                    1          2          3          4          5
     1  C    0.000000
     2  C    1.393585   0.000000
     3  C    2.714955   2.277599   0.000000
     4  C    2.417747   2.747449   1.401486   0.000000
     5  C    1.393232   2.388864   2.376931   1.398087   0.000000
     6  C    5.379364   5.584936   3.771565   3.323008   4.315451
     7  C    6.366459   6.658155   5.098087   4.603775   5.357328
     8  C    3.833861   4.262041   2.532953   1.516816   2.566838
     9  N    2.413338   1.339628   1.340356   2.436152   2.799357
    10  N    4.540792   5.023073   3.400073   2.489650   3.301089
    11  O    5.631937   5.552195   3.498223   3.479787   4.702024
    12  Cl   2.717970   4.004597   4.016508   2.746145   1.752645
    13  H    1.084732   2.162935   3.799222   3.407168   2.161410
    14  H    2.157341   1.088055   3.248729   3.835095   3.383517
    15  H    3.801647   3.245964   1.087248   2.151803   3.369141
    16  H    6.126601   6.386735   5.120479   4.713162   5.293113
    17  H    7.283889   7.445218   5.743082   5.419407   6.302456
    18  H    6.713947   7.203104   5.733311   5.001170   5.600794
    19  H    4.544733   4.701682   2.626009   2.141397   3.418667
    20  H    4.137976   4.797345   3.353306   2.163586   2.789290
    21  H    4.690654   5.400372   4.108077   3.007391   3.427312
                    6          7          8          9         10
     6  C    0.000000
     7  C    1.522602   0.000000
     8  C    2.469747   3.822319   0.000000
     9  N    4.928207   6.126193   3.799609   0.000000
    10  N    1.369763   2.445984   1.456771   4.597533   0.000000
    11  O    1.225346   2.421139   2.782677   4.640910   2.264511
    12  Cl   4.825503   5.599785   3.140986   4.551642   3.558741
    13  H    6.255854   7.120828   4.723929   3.385682   5.346595
    14  H    6.579457   7.592642   5.348765   2.060299   6.078957
    15  H    3.545331   4.938498   2.722046   2.057462   3.496718
    16  H    2.155458   1.095903   4.260871   5.962250   2.934324
    17  H    2.140871   1.091127   4.580731   6.775066   3.312657
    18  H    2.192696   1.095851   4.067003   6.803014   2.624723
    19  H    2.565023   4.052945   1.092237   3.958480   2.058389
    20  H    3.290930   4.492822   1.095223   4.528901   2.082280
    21  H    2.065726   2.572063   2.130813   5.199562   1.009668
                   11         12         13         14         15
    11  O    0.000000
    12  Cl   5.542273   0.000000
    13  H    6.615397   2.866823   0.000000
    14  H    6.501920   4.874658   2.501451   0.000000
    15  H    2.938607   4.894124   4.885548   4.110657   0.000000
    16  H    2.960251   5.602938   6.809811   7.233620   5.082857
    17  H    2.588351   6.640527   8.089556   8.357605   5.399528
    18  H    3.265221   5.498235   7.375286   8.169500   5.681071
    19  H    2.422578   4.178594   5.517569   5.756155   2.387380
    20  H    3.733207   2.832890   4.882392   5.872102   3.644423
    21  H    3.160912   3.211915   5.333395   6.433109   4.375552
                   16         17         18         19         20
    16  H    0.000000
    17  H    1.771812   0.000000
    18  H    1.775965   1.779974   0.000000
    19  H    4.627216   4.588016   4.430877   0.000000
    20  H    5.003843   5.281585   4.495409   1.763753   0.000000
    21  H    2.949122   3.571807   2.378296   2.935086   2.371499
                   21
    21  H    0.000000
 Stoichiometry    C8H9ClN2O
 Framework group  C1[X(C8H9ClN2O)]
 Deg. of freedom    57
 Full point group                 C1      NOp   1
 Largest Abelian subgroup         C1      NOp   1
 Largest concise Abelian subgroup C1      NOp   1
                         Standard orientation:                         
 ---------------------------------------------------------------------
 Center     Atomic      Atomic             Coordinates (Angstroms)
 Number     Number       Type             X           Y           Z
 ---------------------------------------------------------------------
      1          6           0        2.636730   -0.115411   -0.622786
      2          6           0        2.684016   -1.508019   -0.644835
      3          6           0        0.698935   -1.679579    0.458560
      4          6           0        0.533215   -0.291348    0.556100
      5          6           0        1.540686    0.492445   -0.014266
      6          6           0       -2.718609   -0.193219   -0.120946
      7          6           0       -3.690075    0.345100   -1.162475
      8          6           0       -0.701105    0.289416    1.219349
      9          7           0        1.737544   -2.297955   -0.120624
     10          7           0       -1.742043    0.680420    0.278208
     11          8           0       -2.779502   -1.331853    0.327694
     12         17           0        1.444960    2.242203    0.016510
     13          1           0        3.428852    0.478449   -1.066089
     14          1           0        3.524333   -2.020824   -1.108258
     15          1           0       -0.069407   -2.334176    0.862619
     16          1           0       -3.284711    0.179423   -2.167081
     17          1           0       -4.632267   -0.199099   -1.080742
     18          1           0       -3.886479    1.416688   -1.044092
     19          1           0       -1.139370   -0.459534    1.882657
     20          1           0       -0.441024    1.159280    1.831891
     21          1           0       -1.699493    1.603604   -0.128426
 ---------------------------------------------------------------------
 Rotational constants (GHZ):      1.1528222      0.5654431      0.4240404
 Standard basis: 6-31G(d) (6D, 7F)
 There are   202 symmetry adapted basis functions of A   symmetry.
 Integral buffers will be    131072 words long.
 Raffenetti 2 integral format.
 Two-electron integral symmetry is turned on.
   202 basis functions,   396 primitive gaussians,   202 cartesian basis functions
    48 alpha electrons       48 beta electrons
       nuclear repulsion energy       759.1857973063 Hartrees.
 NAtoms=   21 NActive=   21 NUniq=   21 SFac= 1.00D+00 NAtFMM=   60 NAOKFM=F Big=F
 One-electron integrals computed using PRISM.
 NBasis=   202 RedAO= T  NBF=   202
 NBsUse=   202 1.00D-06 NBFU=   202
 Initial guess read from the read-write file.
 B after Tr=     0.000000    0.000000    0.000000
         Rot=    1.000000    0.000000    0.000000    0.000000 Ang=   0.00 deg.
 Initial guess orbital symmetries:
       Occupied  (A) (A) (A) (A) (A) (A) (A) (A) (A) (A) (A) (A)
                 (A) (A) (A) (A) (A) (A) (A) (A) (A) (A) (A) (A)
                 (A) (A) (A) (A) (A) (A) (A) (A) (A) (A) (A) (A)
                 (A) (A) (A) (A) (A) (A) (A) (A) (A) (A) (A) (A)
       Virtual   (A) (A) (A) (A) (A) (A) (A) (A) (A) (A) (A) (A)
                 (A) (A) (A) (A) (A) (A) (A) (A) (A) (A) (A) (A)
                 (A) (A) (A) (A) (A) (A) (A) (A) (A) (A) (A) (A)
                 (A) (A) (A) (A) (A) (A) (A) (A) (A) (A) (A) (A)
                 (A) (A) (A) (A) (A) (A) (A) (A) (A) (A) (A) (A)
                 (A) (A) (A) (A) (A) (A) (A) (A) (A) (A) (A) (A)
                 (A) (A) (A) (A) (A) (A) (A) (A) (A) (A) (A) (A)
                 (A) (A) (A) (A) (A) (A) (A) (A) (A) (A) (A) (A)
                 (A) (A) (A) (A) (A) (A) (A) (A) (A) (A) (A) (A)
                 (A) (A) (A) (A) (A) (A) (A) (A) (A) (A) (A) (A)
                 (A) (A) (A) (A) (A) (A) (A) (A) (A) (A) (A) (A)
                 (A) (A) (A) (A) (A) (A) (A) (A) (A) (A) (A) (A)
                 (A) (A) (A) (A) (A) (A) (A) (A) (A) (A)
 Harris functional with IExCor=  402 diagonalized for initial guess.
 ExpMin= 1.43D-01 ExpMax= 2.52D+04 ExpMxC= 3.78D+03 IAcc=3 IRadAn=         5 AccDes= 0.00D+00
 HarFok:  IExCor=  402 AccDes= 0.00D+00 IRadAn=         5 IDoV= 1
 ScaDFX=  1.000000  1.000000  1.000000  1.000000
 FoFCou: FMM=F IPFlag=           0 FMFlag=      100000 FMFlg1=           0
         NFxFlg=           0 DoJE=T BraDBF=F KetDBF=T FulRan=T
         Omega=  0.000000  0.000000  1.000000  0.000000  0.000000 ICntrl=     500 IOpCl=  0
         NMat0=    1 NMatS0=    1 NMatT0=    0 NMatD0=    1 NMtDS0=    0 NMtDT0=    0
         I1Cent=           4 NGrid=           0.
 Petite list used in FoFCou.
 Requested convergence on RMS density matrix=1.00D-08 within 128 cycles.
 Requested convergence on MAX density matrix=1.00D-06.
 Requested convergence on             energy=1.00D-06.
 No special actions if energy rises.
 Integral accuracy reduced to 1.0D-05 until final iterations.
 Initial convergence to 1.0D-05 achieved.  Increase integral accuracy.
 SCF Done:  E(RB3LYP) =  -955.207005978     A.U. after   12 cycles
             Convg  =    0.8032D-08             -V/T =  2.0064
 Calling FoFJK, ICntrl=      2127 FMM=F ISym2X=0 I1Cent= 0 IOpClX= 0 NMat=1 NMatS=1 NMatT=0.
 ***** Axes restored to original set *****
 -------------------------------------------------------------------
 Center     Atomic                   Forces (Hartrees/Bohr)
 Number     Number              X              Y              Z
 -------------------------------------------------------------------
      1        6           0.001179376   -0.002051841   -0.000507723
      2        6          -0.001826742    0.002913649    0.001087560
      3        6          -0.005757983    0.000999314    0.001204983
      4        6           0.002958980    0.000009676   -0.001340371
      5        6          -0.005929393    0.002442022    0.002081811
      6        6          -0.001195240    0.000047133    0.003060419
      7        6           0.001220038    0.000210255    0.000752612
      8        6           0.000969363    0.001648869    0.002073551
      9        7           0.005326748   -0.002185199   -0.001454563
     10        7           0.003197919   -0.001736341   -0.001602365
     11        8          -0.000705552    0.001574728   -0.002249771
     12       17           0.002596555   -0.001831776   -0.001238243
     13        1           0.000020233    0.000110724    0.000054124
     14        1           0.000228140   -0.001363416   -0.000406751
     15        1           0.001955636    0.000646180   -0.000321909
     16        1          -0.000326634   -0.000084193   -0.000035138
     17        1          -0.000586008    0.000343126    0.000447558
     18        1          -0.000513917   -0.000618596    0.000275820
     19        1          -0.000977714    0.000210482   -0.000479559
     20        1          -0.001256361   -0.000601472   -0.001104128
     21        1          -0.000577445   -0.000683322   -0.000297918
 -------------------------------------------------------------------
 Cartesian Forces:  Max     0.005929393 RMS     0.001848612

 GradGradGradGradGradGradGradGradGradGradGradGradGradGradGradGradGradGrad
 Berny optimization.
 Using GEDIIS/GDIIS optimizer.
 Internal  Forces:  Max     0.004192742 RMS     0.000986276
 Search for a local minimum.
 Step number   2 out of a maximum of  107
 All quantities printed in internal units (Hartrees-Bohrs-Radians)
 Mixed Optimization -- En-DIIS/RFO-DIIS
 Update second derivatives using D2CorX and points    1    2
 DE= -2.86D-03 DEPred=-2.95D-03 R= 9.68D-01
 SS=  1.41D+00  RLast= 1.74D-01 DXNew= 5.0454D-01 5.2050D-01
 Trust test= 9.68D-01 RLast= 1.74D-01 DXMaxT set to 5.05D-01
 ITU=  1  0
 Use linear search instead of GDIIS.
     Eigenvalues ---    0.00710   0.00761   0.01065   0.01243   0.01464
     Eigenvalues ---    0.01568   0.02083   0.02157   0.02173   0.02228
     Eigenvalues ---    0.02243   0.02261   0.02312   0.02338   0.05101
     Eigenvalues ---    0.06490   0.07073   0.07492   0.10245   0.13402
     Eigenvalues ---    0.15124   0.15976   0.16000   0.16000   0.16000
     Eigenvalues ---    0.16000   0.16234   0.21266   0.22088   0.22352
     Eigenvalues ---    0.23489   0.24432   0.24876   0.24990   0.24999
     Eigenvalues ---    0.27649   0.31220   0.32185   0.33568   0.34071
     Eigenvalues ---    0.34314   0.34403   0.34439   0.34587   0.35056
     Eigenvalues ---    0.35147   0.35426   0.38898   0.43271   0.44105
     Eigenvalues ---    0.45071   0.46899   0.48026   0.50720   0.51094
     Eigenvalues ---    0.53809   0.91387
 RFO step:  Lambda=-4.87364366D-04 EMin= 7.09726492D-03
 Quartic linear search produced a step of  0.00170.
 Iteration  1 RMS(Cart)=  0.01277479 RMS(Int)=  0.00009305
 Iteration  2 RMS(Cart)=  0.00021794 RMS(Int)=  0.00003707
 Iteration  3 RMS(Cart)=  0.00000002 RMS(Int)=  0.00003707
 Variable       Old X    -DE/DX   Delta X   Delta X   Delta X     New X
                                 (Linear)    (Quad)   (Total)
    R1        2.63349   0.00014   0.00004   0.00228   0.00232   2.63582
    R2        2.63283  -0.00094   0.00000  -0.00175  -0.00175   2.63108
    R3        2.04985  -0.00012   0.00000  -0.00034  -0.00034   2.04950
    R4        2.53153  -0.00075  -0.00004  -0.00334  -0.00338   2.52815
    R5        2.05613   0.00030   0.00000   0.00092   0.00092   2.05704
    R6        2.64843   0.00052   0.00003   0.00269   0.00273   2.65115
    R7        2.53290  -0.00248  -0.00005  -0.00733  -0.00738   2.52553
    R8        2.05460   0.00066  -0.00001   0.00155   0.00154   2.05614
    R9        2.64200   0.00063   0.00000   0.00161   0.00161   2.64361
   R10        2.86637  -0.00061   0.00005   0.00067   0.00072   2.86709
   R11        3.31202   0.00341   0.00008   0.01418   0.01426   3.32628
   R12        2.87730  -0.00146   0.00006  -0.00170  -0.00165   2.87565
   R13        2.58848   0.00109  -0.00001   0.00187   0.00187   2.59034
   R14        2.31557   0.00015  -0.00001  -0.00047  -0.00049   2.31508
   R15        2.07096   0.00030   0.00001   0.00129   0.00129   2.07225
   R16        2.06193   0.00023  -0.00001   0.00031   0.00030   2.06223
   R17        2.07086  -0.00027   0.00001  -0.00045  -0.00044   2.07042
   R18        2.75290  -0.00048   0.00003   0.00022   0.00025   2.75315
   R19        2.06403  -0.00003  -0.00001  -0.00078  -0.00080   2.06323
   R20        2.06967  -0.00104   0.00000  -0.00304  -0.00304   2.06663
   R21        1.90800   0.00037  -0.00002  -0.00021  -0.00023   1.90777
    A1        2.05962  -0.00136   0.00000  -0.00569  -0.00570   2.05392
    A2        2.11279   0.00068   0.00003   0.00402   0.00404   2.11683
    A3        2.11077   0.00068  -0.00002   0.00168   0.00166   2.11243
    A4        2.16409  -0.00079   0.00002  -0.00270  -0.00268   2.16140
    A5        2.09893  -0.00105  -0.00001  -0.00789  -0.00791   2.09102
    A6        2.02017   0.00184   0.00000   0.01059   0.01058   2.03076
    A7        2.18792  -0.00148   0.00003  -0.00538  -0.00536   2.18256
    A8        2.07939  -0.00129  -0.00005  -0.01155  -0.01161   2.06778
    A9        2.01575   0.00277   0.00002   0.01706   0.01707   2.03282
   A10        2.02830  -0.00080  -0.00001  -0.00313  -0.00315   2.02516
   A11        2.10124  -0.00048   0.00002  -0.00098  -0.00096   2.10028
   A12        2.15332   0.00128  -0.00001   0.00428   0.00426   2.15758
   A13        2.09496   0.00173  -0.00001   0.00698   0.00697   2.10192
   A14        2.07854  -0.00089   0.00004  -0.00200  -0.00196   2.07659
   A15        2.10967  -0.00084  -0.00003  -0.00499  -0.00501   2.10466
   A16        2.01387  -0.00189   0.00004  -0.00552  -0.00548   2.00839
   A17        2.14990  -0.00230   0.00002  -0.00831  -0.00830   2.14161
   A18        2.11929   0.00419  -0.00006   0.01376   0.01369   2.13299
   A19        1.91517  -0.00019   0.00002  -0.00169  -0.00169   1.91349
   A20        1.90008  -0.00067  -0.00002  -0.00437  -0.00440   1.89569
   A21        1.96728  -0.00024   0.00005   0.00183   0.00188   1.96916
   A22        1.88880   0.00015  -0.00004  -0.00235  -0.00240   1.88639
   A23        1.88931   0.00005  -0.00003  -0.00231  -0.00235   1.88696
   A24        1.90165   0.00091   0.00001   0.00884   0.00886   1.91051
   A25        1.98422  -0.00029   0.00007  -0.00054  -0.00049   1.98373
   A26        1.90660  -0.00018  -0.00004  -0.00307  -0.00311   1.90349
   A27        1.93415  -0.00037  -0.00001  -0.00566  -0.00568   1.92847
   A28        1.86468   0.00015  -0.00007  -0.00190  -0.00198   1.86269
   A29        1.89424  -0.00007   0.00002  -0.00226  -0.00226   1.89198
   A30        1.87574   0.00085   0.00004   0.01458   0.01463   1.89037
   A31        2.03142   0.00269  -0.00001   0.00987   0.00987   2.04129
   A32        2.12528  -0.00136  -0.00004  -0.00851  -0.00875   2.11653
   A33        2.08962   0.00079   0.00002   0.00375   0.00357   2.09319
   A34        2.06632   0.00054   0.00002   0.00262   0.00244   2.06876
    D1        0.00418   0.00001   0.00000   0.00024   0.00024   0.00442
    D2       -3.13883  -0.00006   0.00000  -0.00224  -0.00222  -3.14104
    D3       -3.13709   0.00003   0.00000   0.00086   0.00085  -3.13624
    D4        0.00309  -0.00004   0.00000  -0.00162  -0.00161   0.00148
    D5        0.00497   0.00004   0.00000   0.00155   0.00155   0.00652
    D6       -3.13181   0.00006   0.00000   0.00230   0.00229  -3.12952
    D7       -3.13694   0.00002   0.00000   0.00093   0.00094  -3.13600
    D8        0.00946   0.00004   0.00000   0.00168   0.00168   0.01115
    D9       -0.00601   0.00002  -0.00001   0.00091   0.00092  -0.00509
   D10        3.13694   0.00009  -0.00001   0.00329   0.00331   3.14026
   D11        0.00979   0.00016  -0.00001   0.00575   0.00572   0.01551
   D12        3.12525   0.00030  -0.00002   0.01312   0.01307   3.13832
   D13       -3.11340  -0.00010   0.00001  -0.00403  -0.00398  -3.11738
   D14        0.00206   0.00004   0.00001   0.00335   0.00337   0.00543
   D15       -0.00130  -0.00011   0.00001  -0.00410  -0.00410  -0.00541
   D16        3.12248   0.00010  -0.00001   0.00510   0.00515   3.12764
   D17       -0.01123  -0.00013   0.00001  -0.00425  -0.00425  -0.01548
   D18        3.12547  -0.00014   0.00001  -0.00500  -0.00499   3.12048
   D19       -3.12582  -0.00024   0.00001  -0.01178  -0.01178  -3.13760
   D20        0.01088  -0.00026   0.00001  -0.01253  -0.01252  -0.00165
   D21       -1.70047  -0.00029   0.00006  -0.01363  -0.01357  -1.71405
   D22        0.38029  -0.00041  -0.00002  -0.01854  -0.01856   0.36174
   D23        2.44370   0.00030  -0.00001  -0.00594  -0.00596   2.43774
   D24        1.41304  -0.00017   0.00005  -0.00583  -0.00577   1.40728
   D25       -2.78938  -0.00029  -0.00002  -0.01073  -0.01075  -2.80013
   D26       -0.72597   0.00042  -0.00001   0.00186   0.00185  -0.72412
   D27        1.51797   0.00010   0.00003   0.01194   0.01199   1.52996
   D28       -2.70105  -0.00021  -0.00001   0.00553   0.00553  -2.69551
   D29       -0.58897   0.00033   0.00003   0.01486   0.01490  -0.57407
   D30       -1.60732   0.00016   0.00001   0.01689   0.01688  -1.59044
   D31        0.45685  -0.00016  -0.00003   0.01047   0.01043   0.46728
   D32        2.56893   0.00038   0.00001   0.01980   0.01980   2.58872
   D33       -3.08869   0.00018   0.00006   0.01620   0.01629  -3.07240
   D34       -0.01558  -0.00036   0.00000  -0.02090  -0.02088  -0.03646
   D35        0.03692   0.00007   0.00008   0.01113   0.01119   0.04811
   D36        3.11003  -0.00047   0.00002  -0.02597  -0.02597   3.08405
   D37        1.56697  -0.00016  -0.00007  -0.02133  -0.02139   1.54558
   D38       -1.50703   0.00036  -0.00001   0.01525   0.01523  -1.49180
   D39       -0.53754   0.00014  -0.00001  -0.01585  -0.01585  -0.55339
   D40        2.67165   0.00066   0.00005   0.02073   0.02076   2.69241
   D41       -2.55538  -0.00090  -0.00002  -0.03074  -0.03075  -2.58613
   D42        0.65381  -0.00038   0.00004   0.00583   0.00586   0.65967
         Item               Value     Threshold  Converged?
 Maximum Force            0.004193     0.000450     NO 
 RMS     Force            0.000986     0.000300     NO 
 Maximum Displacement     0.046081     0.001800     NO 
 RMS     Displacement     0.012919     0.001200     NO 
 Predicted change in Energy=-2.454690D-04
 GradGradGradGradGradGradGradGradGradGradGradGradGradGradGradGradGradGrad

                          Input orientation:                          
 ---------------------------------------------------------------------
 Center     Atomic      Atomic             Coordinates (Angstroms)
 Number     Number       Type             X           Y           Z
 ---------------------------------------------------------------------
      1          6           0       -1.508243   -3.429800    4.570985
      2          6           0       -2.577793   -2.647563    5.006501
      3          6           0       -1.314237   -0.750108    4.999173
      4          6           0       -0.157154   -1.419029    4.572660
      5          6           0       -0.289180   -2.794040    4.351416
      6          6           0        0.897340    0.859176    2.420289
      7          6           0        1.152682    1.035054    0.930479
      8          6           0        1.133692   -0.652843    4.352280
      9          7           0       -2.498648   -1.329014    5.218579
     10          7           0        1.377377   -0.306639    2.958248
     11          8           0        0.287898    1.684815    3.089424
     12         17           0        1.078696   -3.745326    3.783754
     13          1           0       -1.620168   -4.496108    4.407549
     14          1           0       -3.546510   -3.109127    5.189434
     15          1           0       -1.262234    0.324576    5.161137
     16          1           0        0.337148    0.574682    0.359983
     17          1           0        1.164987    2.102247    0.702768
     18          1           0        2.095061    0.581272    0.604315
     19          1           0        1.089585    0.286919    4.906320
     20          1           0        1.988022   -1.228402    4.719497
     21          1           0        1.831275   -0.985760    2.364989
 ---------------------------------------------------------------------
                    Distance matrix (angstroms):
                    1          2          3          4          5
     1  C    0.000000
     2  C    1.394814   0.000000
     3  C    2.720612   2.279685   0.000000
     4  C    2.422528   2.749001   1.402930   0.000000
     5  C    1.392306   2.385025   2.376550   1.398940   0.000000
     6  C    5.367275   5.573353   3.759191   3.306792   4.299194
     7  C    6.345764   6.640186   5.082004   4.582976   5.333267
     8  C    3.839159   4.264040   2.533829   1.517198   2.570854
     9  N    2.411137   1.337839   1.336450   2.430619   2.789269
    10  N    4.547731   5.031763   3.406880   2.489683   3.302347
    11  O    5.619647   5.536865   3.484657   3.468704   4.688900
    12  Cl   2.722414   4.008753   4.021778   2.749791   1.760190
    13  H    1.084551   2.166312   3.804751   3.411171   2.161415
    14  H    2.154030   1.088539   3.253338   3.837262   3.378129
    15  H    3.808430   3.253955   1.088064   2.146548   3.365746
    16  H    6.097039   6.361594   5.099434   4.686775   5.260429
    17  H    7.260359   7.422346   5.722026   5.396620   6.277011
    18  H    6.693801   7.186110   5.719324   4.982111   5.578360
    19  H    4.546994   4.697966   2.619620   2.139146   3.420704
    20  H    4.134256   4.789891   3.348417   2.158629   2.787894
    21  H    4.689577   5.401764   4.109587   3.002562   3.422294
                    6          7          8          9         10
     6  C    0.000000
     7  C    1.521731   0.000000
     8  C    2.464681   3.815505   0.000000
     9  N    4.914402   6.108095   3.794941   0.000000
    10  N    1.370751   2.441817   1.456903   4.601948   0.000000
    11  O    1.225089   2.414764   2.788336   4.623993   2.273777
    12  Cl   4.805555   5.567646   3.144789   4.549140   3.548977
    13  H    6.242284   7.097355   4.728370   3.385259   5.351392
    14  H    6.569886   7.575971   5.351490   2.065833   6.089072
    15  H    3.530128   4.922912   2.711099   2.065522   3.495526
    16  H    2.153976   1.096587   4.252028   5.939003   2.934243
    17  H    2.136993   1.091286   4.572794   6.751913   3.306816
    18  H    2.193063   1.095619   4.061344   6.785484   2.616190
    19  H    2.558278   4.046109   1.091814   3.947678   2.056726
    20  H    3.291492   4.491957   1.093615   4.515463   2.079551
    21  H    2.068594   2.569435   2.132318   5.197022   1.009546
                   11         12         13         14         15
    11  O    0.000000
    12  Cl   5.531174   0.000000
    13  H    6.601665   2.869957   0.000000
    14  H    6.488036   4.875778   2.499171   0.000000
    15  H    2.923209   4.892978   4.892342   4.124202   0.000000
    16  H    2.946977   5.561885   6.776930   7.209497   5.066721
    17  H    2.576754   6.610146   8.063546   8.335874   5.378529
    18  H    3.264876   5.464547   7.351686   8.152894   5.665858
    19  H    2.428565   4.185603   5.519862   5.753838   2.365882
    20  H    3.746250   2.835030   4.877934   5.864214   3.629180
    21  H    3.168405   3.192878   5.329826   6.434808   4.370952
                   16         17         18         19         20
    16  H    0.000000
    17  H    1.770953   0.000000
    18  H    1.774824   1.785524   0.000000
    19  H    4.617158   4.579405   4.427739   0.000000
    20  H    4.998185   5.282492   4.496787   1.771522   0.000000
    21  H    2.947447   3.569693   2.371739   2.937376   2.372161
                   21
    21  H    0.000000
 Stoichiometry    C8H9ClN2O
 Framework group  C1[X(C8H9ClN2O)]
 Deg. of freedom    57
 Full point group                 C1      NOp   1
 Largest Abelian subgroup         C1      NOp   1
 Largest concise Abelian subgroup C1      NOp   1
                         Standard orientation:                         
 ---------------------------------------------------------------------
 Center     Atomic      Atomic             Coordinates (Angstroms)
 Number     Number       Type             X           Y           Z
 ---------------------------------------------------------------------
      1          6           0        2.635863   -0.109471   -0.622849
      2          6           0        2.685767   -1.503249   -0.642850
      3          6           0        0.697323   -1.683240    0.457448
      4          6           0        0.528257   -0.294113    0.557213
      5          6           0        1.535642    0.489695   -0.015372
      6          6           0       -2.707057   -0.197099   -0.119696
      7          6           0       -3.670255    0.346172   -1.165053
      8          6           0       -0.702566    0.281547    1.232180
      9          7           0        1.739316   -2.290208   -0.118694
     10          7           0       -1.745840    0.685875    0.299085
     11          8           0       -2.767472   -1.345459    0.302752
     12         17           0        1.428766    2.246409    0.012984
     13          1           0        3.424966    0.488760   -1.065215
     14          1           0        3.530503   -2.007807   -1.108425
     15          1           0       -0.074195   -2.330626    0.869194
     16          1           0       -3.254912    0.186246   -2.167260
     17          1           0       -4.608472   -0.206775   -1.095026
     18          1           0       -3.867840    1.417131   -1.045100
     19          1           0       -1.140318   -0.477863    1.883123
     20          1           0       -0.433808    1.146240    1.845426
     21          1           0       -1.697344    1.608291   -0.108323
 ---------------------------------------------------------------------
 Rotational constants (GHZ):      1.1498272      0.5687865      0.4258087
 Standard basis: 6-31G(d) (6D, 7F)
 There are   202 symmetry adapted basis functions of A   symmetry.
 Integral buffers will be    131072 words long.
 Raffenetti 2 integral format.
 Two-electron integral symmetry is turned on.
   202 basis functions,   396 primitive gaussians,   202 cartesian basis functions
    48 alpha electrons       48 beta electrons
       nuclear repulsion energy       759.5492244943 Hartrees.
 NAtoms=   21 NActive=   21 NUniq=   21 SFac= 1.00D+00 NAtFMM=   60 NAOKFM=F Big=F
 One-electron integrals computed using PRISM.
 NBasis=   202 RedAO= T  NBF=   202
 NBsUse=   202 1.00D-06 NBFU=   202
 Initial guess read from the read-write file.
 B after Tr=     0.000000    0.000000    0.000000
         Rot=    1.000000    0.000000    0.000000    0.000000 Ang=   0.00 deg.
 Initial guess orbital symmetries:
       Occupied  (A) (A) (A) (A) (A) (A) (A) (A) (A) (A) (A) (A)
                 (A) (A) (A) (A) (A) (A) (A) (A) (A) (A) (A) (A)
                 (A) (A) (A) (A) (A) (A) (A) (A) (A) (A) (A) (A)
                 (A) (A) (A) (A) (A) (A) (A) (A) (A) (A) (A) (A)
       Virtual   (A) (A) (A) (A) (A) (A) (A) (A) (A) (A) (A) (A)
                 (A) (A) (A) (A) (A) (A) (A) (A) (A) (A) (A) (A)
                 (A) (A) (A) (A) (A) (A) (A) (A) (A) (A) (A) (A)
                 (A) (A) (A) (A) (A) (A) (A) (A) (A) (A) (A) (A)
                 (A) (A) (A) (A) (A) (A) (A) (A) (A) (A) (A) (A)
                 (A) (A) (A) (A) (A) (A) (A) (A) (A) (A) (A) (A)
                 (A) (A) (A) (A) (A) (A) (A) (A) (A) (A) (A) (A)
                 (A) (A) (A) (A) (A) (A) (A) (A) (A) (A) (A) (A)
                 (A) (A) (A) (A) (A) (A) (A) (A) (A) (A) (A) (A)
                 (A) (A) (A) (A) (A) (A) (A) (A) (A) (A) (A) (A)
                 (A) (A) (A) (A) (A) (A) (A) (A) (A) (A) (A) (A)
                 (A) (A) (A) (A) (A) (A) (A) (A) (A) (A) (A) (A)
                 (A) (A) (A) (A) (A) (A) (A) (A) (A) (A)
 Harris functional with IExCor=  402 diagonalized for initial guess.
 ExpMin= 1.43D-01 ExpMax= 2.52D+04 ExpMxC= 3.78D+03 IAcc=3 IRadAn=         5 AccDes= 0.00D+00
 HarFok:  IExCor=  402 AccDes= 0.00D+00 IRadAn=         5 IDoV= 1
 ScaDFX=  1.000000  1.000000  1.000000  1.000000
 FoFCou: FMM=F IPFlag=           0 FMFlag=      100000 FMFlg1=           0
         NFxFlg=           0 DoJE=T BraDBF=F KetDBF=T FulRan=T
         Omega=  0.000000  0.000000  1.000000  0.000000  0.000000 ICntrl=     500 IOpCl=  0
         NMat0=    1 NMatS0=    1 NMatT0=    0 NMatD0=    1 NMtDS0=    0 NMtDT0=    0
         I1Cent=           4 NGrid=           0.
 Petite list used in FoFCou.
 Requested convergence on RMS density matrix=1.00D-08 within 128 cycles.
 Requested convergence on MAX density matrix=1.00D-06.
 Requested convergence on             energy=1.00D-06.
 No special actions if energy rises.
 Integral accuracy reduced to 1.0D-05 until final iterations.
 Initial convergence to 1.0D-05 achieved.  Increase integral accuracy.
 SCF Done:  E(RB3LYP) =  -955.207292781     A.U. after   11 cycles
             Convg  =    0.7828D-08             -V/T =  2.0064
 Calling FoFJK, ICntrl=      2127 FMM=F ISym2X=0 I1Cent= 0 IOpClX= 0 NMat=1 NMatS=1 NMatT=0.
 ***** Axes restored to original set *****
 -------------------------------------------------------------------
 Center     Atomic                   Forces (Hartrees/Bohr)
 Number     Number              X              Y              Z
 -------------------------------------------------------------------
      1        6           0.000817870   -0.000494320   -0.000301988
      2        6          -0.000268283    0.000459144    0.000060430
      3        6          -0.000666111    0.000063768    0.000702528
      4        6           0.001541627   -0.000840844   -0.000959180
      5        6          -0.002058226    0.001895238    0.000876031
      6        6          -0.000874151   -0.000859425   -0.000753244
      7        6           0.000507972    0.000209824    0.000123552
      8        6          -0.000511968   -0.000019231    0.000448928
      9        7           0.000517250   -0.000482504   -0.000299614
     10        7           0.001323691    0.000925878    0.000616981
     11        8           0.000124041   -0.000149330   -0.000029916
     12       17           0.000657573   -0.000560942   -0.000324047
     13        1          -0.000088405    0.000111113    0.000056024
     14        1           0.000078885   -0.000109350    0.000017467
     15        1          -0.000002332    0.000173849   -0.000188769
     16        1          -0.000165122    0.000067658    0.000215854
     17        1           0.000078828    0.000101313   -0.000058597
     18        1          -0.000211443   -0.000030679    0.000146056
     19        1          -0.000089769    0.000026978    0.000142965
     20        1          -0.000170537   -0.000089928   -0.000045950
     21        1          -0.000541389   -0.000398211   -0.000445511
 -------------------------------------------------------------------
 Cartesian Forces:  Max     0.002058226 RMS     0.000606126

 GradGradGradGradGradGradGradGradGradGradGradGradGradGradGradGradGradGrad
 Berny optimization.
 Using GEDIIS/GDIIS optimizer.
 Internal  Forces:  Max     0.000935016 RMS     0.000259851
 Search for a local minimum.
 Step number   3 out of a maximum of  107
 All quantities printed in internal units (Hartrees-Bohrs-Radians)
 Mixed Optimization -- En-DIIS/RFO-DIIS
 Swaping is turned off.
 Update second derivatives using D2CorX and points    1    2    3
 DE= -2.87D-04 DEPred=-2.45D-04 R= 1.17D+00
 SS=  1.41D+00  RLast= 9.14D-02 DXNew= 8.4853D-01 2.7428D-01
 Trust test= 1.17D+00 RLast= 9.14D-02 DXMaxT set to 5.05D-01
 ITU=  1  1  0
     Eigenvalues ---    0.00672   0.00755   0.01062   0.01198   0.01316
     Eigenvalues ---    0.01567   0.02077   0.02154   0.02171   0.02234
     Eigenvalues ---    0.02260   0.02264   0.02312   0.02342   0.05138
     Eigenvalues ---    0.06529   0.07046   0.07532   0.10167   0.13404
     Eigenvalues ---    0.15373   0.15963   0.16000   0.16000   0.16000
     Eigenvalues ---    0.16147   0.16219   0.21258   0.22149   0.22381
     Eigenvalues ---    0.23336   0.23805   0.24974   0.24995   0.25168
     Eigenvalues ---    0.28547   0.30733   0.32318   0.33305   0.34081
     Eigenvalues ---    0.34332   0.34400   0.34443   0.34486   0.34963
     Eigenvalues ---    0.35104   0.35425   0.38939   0.43260   0.44860
     Eigenvalues ---    0.45108   0.47072   0.48095   0.50784   0.51048
     Eigenvalues ---    0.53916   0.91385
 En-DIIS/RFO-DIIS IScMMF=        0 using points:     3    2
 RFO step:  Lambda=-1.96325917D-05.
 DidBck=F Rises=F RFO-DIIS coefs:    1.21623   -0.21623
 Iteration  1 RMS(Cart)=  0.01068755 RMS(Int)=  0.00008134
 Iteration  2 RMS(Cart)=  0.00012896 RMS(Int)=  0.00005385
 Iteration  3 RMS(Cart)=  0.00000001 RMS(Int)=  0.00005385
 Variable       Old X    -DE/DX   Delta X   Delta X   Delta X     New X
                                  (DIIS)     (GDIIS)  (Total)
    R1        2.63582  -0.00006   0.00050   0.00042   0.00092   2.63674
    R2        2.63108  -0.00058  -0.00038  -0.00147  -0.00185   2.62923
    R3        2.04950  -0.00011  -0.00007  -0.00036  -0.00044   2.04907
    R4        2.52815  -0.00033  -0.00073  -0.00124  -0.00197   2.52618
    R5        2.05704  -0.00002   0.00020  -0.00008   0.00012   2.05716
    R6        2.65115   0.00049   0.00059   0.00175   0.00234   2.65349
    R7        2.52553  -0.00019  -0.00160  -0.00101  -0.00260   2.52292
    R8        2.05614   0.00014   0.00033   0.00033   0.00066   2.05681
    R9        2.64361  -0.00094   0.00035  -0.00251  -0.00217   2.64145
   R10        2.86709  -0.00061   0.00016  -0.00145  -0.00130   2.86579
   R11        3.32628   0.00092   0.00308   0.00423   0.00731   3.33359
   R12        2.87565  -0.00034  -0.00036  -0.00027  -0.00062   2.87503
   R13        2.59034  -0.00023   0.00040  -0.00071  -0.00031   2.59003
   R14        2.31508  -0.00018  -0.00010  -0.00044  -0.00054   2.31454
   R15        2.07225  -0.00002   0.00028   0.00004   0.00032   2.07257
   R16        2.06223   0.00011   0.00007   0.00026   0.00033   2.06256
   R17        2.07042  -0.00021  -0.00009  -0.00062  -0.00072   2.06970
   R18        2.75315   0.00019   0.00005   0.00108   0.00113   2.75428
   R19        2.06323   0.00010  -0.00017   0.00015  -0.00003   2.06320
   R20        2.06663  -0.00010  -0.00066  -0.00025  -0.00091   2.06572
   R21        1.90777   0.00029  -0.00005   0.00043   0.00038   1.90815
    A1        2.05392  -0.00028  -0.00123  -0.00157  -0.00280   2.05112
    A2        2.11683   0.00003   0.00087   0.00032   0.00119   2.11803
    A3        2.11243   0.00025   0.00036   0.00125   0.00161   2.11404
    A4        2.16140  -0.00019  -0.00058  -0.00063  -0.00121   2.16019
    A5        2.09102  -0.00003  -0.00171  -0.00040  -0.00211   2.08891
    A6        2.03076   0.00022   0.00229   0.00104   0.00332   2.03408
    A7        2.18256  -0.00022  -0.00116  -0.00035  -0.00152   2.18104
    A8        2.06778   0.00006  -0.00251  -0.00029  -0.00281   2.06497
    A9        2.03282   0.00016   0.00369   0.00058   0.00425   2.03707
   A10        2.02516  -0.00045  -0.00068  -0.00220  -0.00288   2.02228
   A11        2.10028   0.00018  -0.00021   0.00127   0.00105   2.10133
   A12        2.15758   0.00028   0.00092   0.00098   0.00189   2.15947
   A13        2.10192   0.00083   0.00151   0.00341   0.00491   2.10684
   A14        2.07659  -0.00055  -0.00042  -0.00189  -0.00232   2.07427
   A15        2.10466  -0.00027  -0.00108  -0.00151  -0.00260   2.10206
   A16        2.00839   0.00031  -0.00119   0.00256   0.00130   2.00969
   A17        2.14161  -0.00007  -0.00179   0.00039  -0.00147   2.14014
   A18        2.13299  -0.00024   0.00296  -0.00252   0.00037   2.13336
   A19        1.91349  -0.00036  -0.00036  -0.00269  -0.00306   1.91043
   A20        1.89569   0.00016  -0.00095   0.00126   0.00030   1.89599
   A21        1.96916  -0.00010   0.00041   0.00017   0.00058   1.96974
   A22        1.88639   0.00007  -0.00052  -0.00024  -0.00077   1.88562
   A23        1.88696   0.00020  -0.00051   0.00067   0.00016   1.88712
   A24        1.91051   0.00004   0.00192   0.00081   0.00272   1.91323
   A25        1.98373  -0.00040  -0.00011  -0.00138  -0.00149   1.98224
   A26        1.90349   0.00003  -0.00067  -0.00007  -0.00074   1.90275
   A27        1.92847  -0.00001  -0.00123  -0.00167  -0.00291   1.92557
   A28        1.86269   0.00029  -0.00043   0.00217   0.00174   1.86443
   A29        1.89198   0.00010  -0.00049  -0.00008  -0.00058   1.89140
   A30        1.89037   0.00001   0.00316   0.00129   0.00445   1.89482
   A31        2.04129   0.00032   0.00213   0.00137   0.00350   2.04479
   A32        2.11653   0.00001  -0.00189  -0.00097  -0.00316   2.11338
   A33        2.09319  -0.00018   0.00077  -0.00233  -0.00186   2.09133
   A34        2.06876   0.00012   0.00053   0.00025   0.00048   2.06924
    D1        0.00442   0.00000   0.00005  -0.00044  -0.00039   0.00403
    D2       -3.14104   0.00002  -0.00048   0.00126   0.00078  -3.14026
    D3       -3.13624   0.00000   0.00018  -0.00043  -0.00025  -3.13649
    D4        0.00148   0.00002  -0.00035   0.00127   0.00093   0.00241
    D5        0.00652   0.00002   0.00034   0.00091   0.00124   0.00777
    D6       -3.12952   0.00002   0.00050   0.00110   0.00159  -3.12792
    D7       -3.13600   0.00002   0.00020   0.00089   0.00110  -3.13490
    D8        0.01115   0.00002   0.00036   0.00108   0.00145   0.01260
    D9       -0.00509  -0.00003   0.00020  -0.00159  -0.00139  -0.00648
   D10        3.14026  -0.00005   0.00072  -0.00324  -0.00252   3.13773
   D11        0.01551  -0.00004   0.00124  -0.00294  -0.00171   0.01381
   D12        3.13832  -0.00001   0.00283  -0.00066   0.00216   3.14048
   D13       -3.11738   0.00012  -0.00086   0.00657   0.00571  -3.11167
   D14        0.00543   0.00015   0.00073   0.00885   0.00958   0.01501
   D15       -0.00541   0.00005  -0.00089   0.00338   0.00249  -0.00292
   D16        3.12764  -0.00011   0.00111  -0.00596  -0.00485   3.12279
   D17       -0.01548   0.00000  -0.00092   0.00063  -0.00029  -0.01577
   D18        3.12048   0.00000  -0.00108   0.00044  -0.00065   3.11983
   D19       -3.13760  -0.00004  -0.00255  -0.00174  -0.00429   3.14130
   D20       -0.00165  -0.00004  -0.00271  -0.00194  -0.00464  -0.00629
   D21       -1.71405  -0.00016  -0.00294  -0.00995  -0.01289  -1.72694
   D22        0.36174  -0.00003  -0.00401  -0.00814  -0.01215   0.34958
   D23        2.43774   0.00000  -0.00129  -0.00761  -0.00891   2.42884
   D24        1.40728  -0.00013  -0.00125  -0.00752  -0.00876   1.39851
   D25       -2.80013   0.00000  -0.00232  -0.00571  -0.00802  -2.80815
   D26       -0.72412   0.00003   0.00040  -0.00518  -0.00478  -0.72890
   D27        1.52996   0.00020   0.00259   0.02812   0.03071   1.56067
   D28       -2.69551   0.00017   0.00120   0.02703   0.02822  -2.66729
   D29       -0.57407   0.00027   0.00322   0.02905   0.03227  -0.54180
   D30       -1.59044  -0.00002   0.00365   0.00578   0.00943  -1.58101
   D31        0.46728  -0.00005   0.00225   0.00468   0.00694   0.47422
   D32        2.58872   0.00004   0.00428   0.00670   0.01099   2.59971
   D33       -3.07240   0.00000   0.00352   0.00118   0.00468  -3.06772
   D34       -0.03646  -0.00041  -0.00452  -0.03293  -0.03743  -0.07389
   D35        0.04811   0.00022   0.00242   0.02344   0.02584   0.07395
   D36        3.08405  -0.00019  -0.00562  -0.01067  -0.01626   3.06779
   D37        1.54558  -0.00015  -0.00462  -0.01625  -0.02087   1.52471
   D38       -1.49180   0.00028   0.00329   0.01755   0.02085  -1.47096
   D39       -0.55339  -0.00015  -0.00343  -0.01681  -0.02023  -0.57362
   D40        2.69241   0.00028   0.00449   0.01699   0.02149   2.71390
   D41       -2.58613  -0.00036  -0.00665  -0.01940  -0.02605  -2.61218
   D42        0.65967   0.00007   0.00127   0.01440   0.01567   0.67534
         Item               Value     Threshold  Converged?
 Maximum Force            0.000935     0.000450     NO 
 RMS     Force            0.000260     0.000300     YES
 Maximum Displacement     0.038545     0.001800     NO 
 RMS     Displacement     0.010734     0.001200     NO 
 Predicted change in Energy=-5.422392D-05
[...]
 80610,-0.22905943,0.09102899,0.00552426,-0.00211732,0.01255057,0.01903
 804,-0.10671721,0.01570069,-0.00243708,-0.00039807,-0.00083173,-0.2847
 3075,0.65340690,0.00078830,0.00021504,0.00072597,-0.00015711,-0.000152
 61,-0.00011538,-0.00145485,0.00268595,0.00052560,0.01831204,0.01338686
 ,-0.01623623,0.00123695,-0.00434610,-0.00067179,-0.00977473,0.06675157
 ,-0.18153411,-0.01271455,0.03323793,-0.02146304,0.02671410,0.02676109,
 -0.20089880,0.00201270,0.00007311,0.00094861,-0.13929988,0.01584105,0.
 64660766,-0.00018762,-0.00039291,0.00006411,0.00026892,-0.00003658,-0.
 00029928,-0.00071373,0.00292253,0.00098334,-0.00063452,-0.00073067,-0.
 00100823,-0.00015069,0.00093139,0.00028140,-0.24198415,0.20501369,0.17
 377703,0.00384079,0.01266087,0.01923646,-0.00370458,-0.00153938,0.0053
 2479,0.00083336,-0.00080260,0.00042446,-0.01582837,0.05455227,0.005790
 21,0.24976363,-0.00035230,0.00019363,0.00001476,0.00005376,-0.00026510
 ,-0.00005706,-0.00006374,-0.00214365,-0.00012111,-0.00032077,0.0012046
 1,0.00148483,0.00003564,0.00066636,-0.00008716,0.20790924,-0.34744736,
 -0.20717970,0.00912502,0.00648558,-0.01343084,0.00068722,0.00151086,-0
 .01016384,-0.00079386,0.00050605,0.00000140,0.05655105,-0.06560939,-0.
 01537715,-0.27777461,0.40683435,0.00021681,0.00048395,-0.00014592,-0.0
 0023701,0.00003148,0.00023450,0.00052932,-0.00322483,-0.00080786,-0.00
 074550,0.00017942,0.00225326,0.00025745,-0.00066565,-0.00016050,0.1681
 1675,-0.19917997,-0.28574968,0.03014685,-0.03172818,-0.02763036,-0.002
 19083,-0.00158956,-0.00619675,0.00003469,0.00107789,-0.00020977,0.0054
 8661,-0.00926094,0.03191608,-0.20076201,0.23537551,0.28545608,-0.03760
 249,0.02646472,0.01680202,0.00105392,-0.01022965,-0.00039339,0.0049389
 1,-0.00042097,0.00031864,-0.01186495,0.01317263,0.00711261,-0.10345565
 ,0.04061533,0.02956876,-0.00041457,0.00025454,0.00003274,-0.00020510,0
 .00000593,-0.00007705,-0.00313289,-0.00423514,-0.00033219,-0.00156731,
 0.00346931,0.00020794,0.00154428,0.00001268,-0.00128588,0.00073556,-0.
 00024900,-0.00030454,0.14832507,0.00143835,0.00405162,-0.00091614,-0.0
 0252536,0.00126318,-0.00035196,-0.00782860,-0.00458596,-0.00026391,0.0
 3263999,-0.01980433,-0.01351651,0.04135049,-0.06900570,-0.01998564,0.0
 0005318,0.00031785,-0.00092443,0.00010331,-0.00002820,0.00010077,0.002
 71156,-0.00051911,-0.00172177,0.00261500,0.00077868,0.00005534,-0.0008
 5110,-0.00082597,0.00116905,-0.00017567,-0.00034566,0.00052548,-0.0713
 4111,0.09071500,0.01209749,-0.00751692,-0.00019850,0.00079298,0.002041
 58,0.00623839,-0.00132031,-0.00191451,0.00586322,0.01063716,-0.0087521
 3,0.00011604,0.02911820,-0.01939932,-0.03678036,0.00048044,-0.00036975
 ,0.00006850,0.00005968,-0.00002796,0.00002616,0.00065328,0.00096027,-0
 .00336645,0.00013481,-0.00037086,-0.00309500,0.00009141,0.00093941,-0.
 00008554,-0.00047370,0.00026359,0.00034207,-0.05104333,0.03535608,0.03
 341855,-0.05850522,-0.02534281,0.00202429,0.00916015,0.02511318,0.0023
 7532,-0.00223808,-0.00041732,0.00044717,-0.00429674,-0.00164171,0.0026
 8575,0.00001222,-0.02825917,-0.00480509,-0.00008442,0.00015422,-0.0000
 0645,0.00001929,-0.00001439,0.00000667,0.00075162,-0.00119314,-0.00055
 982,-0.00312113,0.00332708,0.00357198,-0.00002275,-0.00004765,0.000119
 79,0.00005151,-0.00003500,-0.00001496,0.00118950,-0.00052669,-0.001164
 31,0.05695711,-0.02844126,-0.33753649,-0.04927942,-0.00490147,-0.01102
 711,-0.00083723,0.00077058,0.00119273,0.00005690,-0.00289443,0.0013639
 5,-0.00009027,0.00224121,-0.01058395,-0.00294924,-0.00007773,0.0001393
 3,-0.00010342,0.00001134,-0.00000965,0.00001842,0.00063529,-0.00015495
 ,-0.00051812,0.00268599,-0.00019030,-0.00223913,-0.00000166,-0.0001134
 0,0.00020794,0.00001254,-0.00006143,0.00004895,0.00045026,0.00131708,0
 .00061291,0.02940426,0.35548406,0.00163075,-0.05017922,-0.04352901,-0.
 00334382,-0.00889171,-0.00030330,0.00078098,0.00033214,-0.00040020,0.0
 0233037,-0.00042430,0.00572279,0.00060395,0.00505975,0.00249490,-0.000
 00729,0.00003188,0.00006236,0.00000753,0.00000265,-0.00000398,0.000102
 23,0.00030962,0.00069220,0.00347582,-0.00244070,0.00647107,-0.00010641
 ,-0.00003607,-0.00002859,0.00001925,0.00002129,-0.00006555,-0.00103402
 ,0.00099981,-0.00223856,-0.00333351,0.05416271,0.03532900,-0.01738455,
 -0.01194403,0.00403668,-0.28166612,-0.10001023,0.04649114,0.00328285,0
 .00077655,0.00190075,0.00008431,0.00077684,0.00000576,-0.00055837,0.00
 266038,0.00263162,-0.00000675,0.00009880,-0.00010738,-0.00000540,-0.00
 000737,0.00001726,-0.00012534,0.00006795,-0.00042681,0.00470166,-0.006
 16225,-0.00343575,0.00009464,-0.00004018,0.00002361,-0.00000956,-0.000
 06985,0.00005689,-0.00151372,0.00007421,0.00038052,0.00036174,0.000412
 06,-0.00088101,0.29276238,0.01628076,0.01090463,-0.00343658,-0.0988838
 5,-0.09912404,0.01587887,-0.00100859,-0.00408763,-0.00222199,-0.000034
 27,-0.00059993,0.00000396,0.00179488,-0.00121608,-0.00208391,0.0000195
 6,0.00002606,-0.00012306,0.00000891,0.00000073,0.00002561,-0.00002640,
 0.00018861,0.00020692,-0.03102324,-0.02521824,0.00439787,-0.00011227,-
 0.00007623,0.00011868,-0.00006962,-0.00004523,0.00011984,0.00125769,-0
 .00003583,-0.00031328,-0.00041350,0.00045801,0.00079319,0.11329813,0.1
 1915877,0.00937513,0.00408896,0.00420522,0.04660910,0.01620033,-0.0503
 1774,0.00145296,-0.00275170,0.00894351,-0.00011683,-0.00024366,-0.0005
 8008,0.00245564,-0.00238301,0.00621594,0.00014680,-0.00014841,0.000027
 10,-0.00001472,-0.00000250,-0.00000726,-0.00058395,0.00032344,-0.00121
 709,-0.00789206,-0.00221437,-0.00211479,0.00029445,0.00023362,-0.00023
 470,-0.00008859,0.00004334,0.00004363,0.00053041,0.00008944,-0.0004074
 9,-0.00104073,0.00057770,-0.00277166,-0.05087831,-0.01347768,0.0376329
 3,-0.00073074,-0.00041468,-0.00006336,-0.00273170,-0.00392330,0.002609
 76,-0.05487452,0.00298792,0.00289951,0.00202729,0.02527274,0.00586404,
 -0.00301683,0.00059018,0.00274914,-0.00047720,0.00063386,0.00046856,0.
 00004002,-0.00006942,-0.00009477,0.00119119,0.00234330,-0.00032849,-0.
 00662889,-0.03573321,-0.00525149,0.00019612,-0.00033788,-0.00001694,0.
 00027050,-0.00024315,-0.00060216,-0.00080449,0.00182887,0.00055945,0.0
 0015051,-0.00003470,-0.00043493,0.00000848,-0.00107551,-0.00005617,0.0
 6609460,0.00054358,0.00036130,0.00000463,-0.00173065,0.00201068,-0.000
 65345,0.00301550,-0.32864041,-0.04937264,-0.00163451,-0.01146217,-0.00
 266651,0.00157823,0.00031058,-0.00139761,0.00025798,-0.00027203,-0.000
 39347,-0.00000561,-0.00000759,0.00004625,-0.00102964,0.00028117,0.0007
 8833,-0.01039072,-0.01288270,0.00103645,-0.00002696,0.00034234,-0.0000
 5282,-0.00064713,-0.00059894,0.00089126,0.00025847,-0.00045933,-0.0001
 0872,0.00012966,-0.00015327,0.00015983,0.00006624,-0.00036240,-0.00017
 107,0.00889782,0.35077396,0.00001746,0.00023667,-0.00055222,0.00290362
 ,-0.00051708,0.00902981,0.00351859,-0.04664679,-0.04989810,0.00093962,
 -0.01084047,0.00472550,0.00287245,-0.00124190,0.00569925,0.00159829,-0
 .00205496,-0.00047279,0.00003104,0.00022467,0.00016942,-0.00149299,0.0
 0052416,-0.00211430,-0.00136391,0.00699614,-0.00214782,0.00016574,0.00
 086171,-0.00113960,-0.00150940,0.00091896,0.00074940,0.00027425,-0.000
 48318,-0.00048382,-0.00040355,0.00023805,-0.00127523,0.00015178,0.0000
 4734,0.00053939,-0.00773612,0.05174501,0.03683976,0.00001267,-0.000004
 44,-0.00000179,-0.00000101,-0.00000328,0.00000013,-0.00000204,0.000025
 16,-0.00000796,0.00002506,-0.00002848,0.00002255,-0.00001638,-0.000010
 28,-0.00001225,0.00697088,0.00234563,0.00336616,-0.25068041,-0.0184229
 4,-0.11375350,-0.00024882,-0.00022910,0.00009225,0.00000254,0.00000043
 ,0.00000417,0.00026857,-0.00058024,-0.00003845,-0.00013030,-0.00031081
 ,0.00015350,0.00000583,0.00000082,0.00000515,-0.00000058,0.00000154,-0
 .00000219,0.00000046,-0.00000016,-0.00000200,0.00000525,0.00000283,-0.
 00001541,0.27033751,-0.00000636,-0.00000754,-0.00002547,-0.00002871,-0
 .00000474,0.00001161,-0.00004145,-0.00003244,0.00000469,0.00006861,0.0
 0000863,0.00020932,-0.00005481,0.00000843,0.00001815,0.00561432,-0.001
 06914,0.00429447,-0.01789227,-0.04647403,-0.01259576,-0.00059559,-0.00
 048921,-0.00009700,-0.00002206,0.00000114,-0.00002520,-0.00095965,-0.0
 0064979,0.00147821,0.00063293,0.00002629,-0.00123974,0.00002217,-0.000
 01667,-0.00001871,-0.00000289,-0.00000709,0.00000720,0.00000138,-0.000
 00100,0.00000651,-0.00000623,0.00000320,0.00001779,0.02093402,0.047282
 02,0.00004905,0.00001151,0.00003195,0.00002023,0.00005578,-0.00000206,
 -0.00000410,0.00008021,-0.00002073,-0.00019292,0.00006974,-0.00038939,
 0.00010015,-0.00007641,-0.00005628,-0.03201791,-0.00344434,-0.01716897
 ,-0.11623278,-0.01353330,-0.11175067,0.00083748,0.00104786,0.00030528,
 0.00008014,-0.00001621,0.00002526,0.00211897,0.00058707,-0.00315581,0.
 00379432,0.00156326,0.00219076,-0.00003363,0.00003415,0.00001187,0.000
 00923,0.00000953,-0.00000257,0.00000269,0.00000831,-0.00000823,-0.0000
 2742,-0.00000521,0.00002877,0.12491037,0.01140406,0.12024147,-0.000004
 32,-0.00000297,-0.00000261,0.00001062,-0.00000268,-0.00000498,0.000007
 52,-0.00003457,-0.00001245,-0.00001214,-0.00001761,0.00004590,-0.00003
 709,0.00005042,0.00002513,-0.00188583,-0.00359661,-0.00179999,-0.08064
 609,-0.08818360,0.01773436,0.00002258,-0.00022943,-0.00032106,-0.00000
 980,0.00000824,0.00000969,-0.00013448,0.00049580,0.00020590,0.00036708
 ,0.00119718,0.00059879,0.00001808,-0.00001396,-0.00001108,-0.00000245,
 -0.00000118,-0.00000113,-0.00000139,-0.00000242,-0.00000021,0.00000620
 ,-0.00000059,-0.00000625,-0.00987231,-0.02759242,0.00533118,0.08278567
 ,-0.00000848,0.00001398,0.00001093,0.00000678,-0.00000650,-0.00000190,
 0.00000573,-0.00006207,-0.00000646,0.00003117,0.00003283,-0.00004607,0
 .00001627,-0.00000946,-0.00002176,0.00047847,-0.00467673,0.00112780,-0
 .08912930,-0.28205583,0.03858435,0.00029339,0.00013886,0.00000554,-0.0
 0002027,0.00001429,0.00000295,-0.00081462,0.00043400,0.00116058,0.0006
 0551,0.00146451,-0.00109867,-0.00002212,0.00000587,0.00002438,-0.00000
 038,0.00000003,-0.00000265,-0.00000353,-0.00000058,0.00000015,-0.00000
 533,0.00000303,0.00002010,-0.00032772,-0.00147303,-0.00006126,0.097189
 86,0.30307321,-0.00000362,0.00000918,-0.00000481,0.00000753,0.00000369
 ,-0.00000386,0.00000471,0.00005545,0.00002148,-0.00021648,-0.00013908,
 0.00020896,0.00006860,-0.00005346,-0.00001748,0.01301111,0.03566867,-0
 .00555154,0.01819996,0.03786918,-0.05222329,-0.00171722,0.00049036,-0.
 00058708,0.00003669,-0.00000326,0.00000014,0.00079519,-0.00103247,-0.0
 0522466,-0.00305232,-0.00284933,0.00215585,-0.00001317,0.00002989,0.00
 001670,0.00000549,0.00000697,-0.00000339,0.00000402,0.00000353,-0.0000
 0071,0.00000078,0.00000824,-0.00002911,-0.00515499,-0.01611379,0.00294
 701,-0.01694381,-0.04290931,0.05740897,0.00000365,-0.00003481,-0.00001
 837,-0.00000263,0.00000910,-0.00000262,-0.00003977,0.00006251,0.000020
 05,0.00006105,-0.00002682,-0.00001188,-0.00012205,0.00011481,0.0000666
 9,-0.00561534,0.00363861,-0.00227605,-0.16132573,0.11530455,0.06409939
 ,0.00015365,-0.00034436,0.00014250,0.00001434,-0.00003450,0.00001442,0
 .00045990,-0.00035346,-0.00056748,0.00210473,-0.00031057,0.00189293,0.
 00007470,-0.00005520,-0.00006251,-0.00000474,-0.00000837,0.00000794,-0
 .00000084,-0.00000515,-0.00000116,0.00001828,-0.00000694,-0.00004239,-
 0.01646861,0.01925277,0.01163755,0.00917830,-0.00785263,-0.00572186,0.
 17074134,0.00000593,0.00000761,-0.00000070,-0.00000962,0.00000256,0.00
 000847,-0.00000339,-0.00002358,-0.00000625,-0.00005792,0.00000701,0.00
 002572,0.00002774,-0.00004288,-0.00000988,-0.00472572,0.00049926,0.001
 45551,0.11595666,-0.17006692,-0.06410690,-0.00021580,0.00025487,-0.000
 51974,0.00000024,0.00001090,-0.00001817,-0.00049159,-0.00034117,0.0006
 4907,0.00022954,0.00277782,0.00117209,-0.00001524,0.00002610,0.0000027
 6,0.00000129,0.00000211,0.,0.00000326,0.00000272,0.00000150,-0.0000053
 3,-0.00000046,0.00002998,-0.00294371,0.00240545,0.00234204,0.02091681,
 -0.01724643,-0.01109649,-0.12872651,0.18092784,-0.00000580,0.00004657,
 0.00000751,-0.00001180,-0.00000559,0.00001073,0.00002018,-0.00019137,-
 0.00005476,-0.00003581,0.00003690,0.00010959,0.00007998,-0.00010802,-0
 .00005161,0.02118530,-0.02730464,-0.00211356,0.06226753,-0.06121288,-0
 .08628653,-0.00008138,0.00007878,0.00035023,0.00000174,0.00006542,-0.0
 0001858,-0.00198891,0.00119093,0.00102105,0.00221085,0.00082289,-0.010
 36865,-0.00006502,0.00005343,0.00004184,0.00000297,0.00000475,-0.00000
 294,0.00000182,0.00000883,0.00000406,-0.00006012,0.00001405,0.00011219
 ,-0.00961132,0.01266513,0.00696087,-0.00497165,0.00332366,0.00152996,-
 0.06939474,0.06900241,0.09001298,0.00070271,-0.00131157,0.00013710,-0.
 00017545,0.00004936,-0.00004445,0.00097164,-0.00239534,-0.00028492,-0.
 00015437,-0.02793660,-0.01372389,-0.00572742,-0.00094023,0.00097461,0.
 00067763,0.00040109,-0.00076312,-0.00007024,0.00013953,0.00035069,-0.0
 5317037,0.01656844,0.00814403,0.00061989,0.00036339,-0.00013509,-0.001
 31853,0.00598780,0.00617481,-0.00083661,0.00018904,-0.00037898,0.00038
 995,0.00057824,-0.00003721,-0.00036988,-0.00019281,0.00017494,-0.00000
 307,0.00007215,-0.00000623,-0.00075439,0.00080309,0.00026091,-0.000004
 34,0.00000288,0.00001416,0.00001199,-0.00001192,0.00001413,0.00001209,
 -0.00003602,0.00007344,0.05842865,0.00048764,-0.00070787,-0.00025340,0
 .00010336,0.00041032,0.00000278,0.00275306,0.00068514,-0.00027003,-0.0
 0099252,-0.01557785,-0.00570523,-0.00246896,-0.00042375,-0.00005251,0.
 00020272,0.00062602,0.00142619,-0.00013050,-0.00041704,-0.00042794,0.0
 1402235,-0.25694503,-0.11959100,-0.00049496,-0.00024295,0.00037681,0.0
 0075553,0.01053775,0.00280650,0.00024360,-0.00217123,0.00147930,-0.000
 35796,0.00000215,0.00003822,-0.00019066,-0.00007308,0.00008639,-0.0000
 3136,0.00005780,-0.00001768,-0.00052445,0.00065521,-0.00013109,-0.0000
 1416,0.00003307,-0.00004486,0.00002763,-0.00006732,0.00002909,0.000010
 29,0.00015518,-0.00020585,-0.01319684,0.27513915,0.00023481,0.00021206
 ,-0.00012159,-0.00001763,0.00018699,0.00017686,0.00091457,0.00094072,-
 0.00002258,-0.00039177,0.00230986,0.00285399,0.00056964,0.00029529,0.0
 0076494,0.00389870,-0.00636939,-0.00161681,0.00027333,0.00042533,0.000
 22720,0.00583776,-0.11099034,-0.11061034,-0.00015434,-0.00010445,0.000
 01972,0.00813495,-0.02740160,-0.02925186,-0.00133993,0.00246281,0.0035
 2298,0.00025333,0.00027821,0.00014240,0.00002972,0.00004180,-0.0001498
 4,0.00000532,0.00001485,-0.00001898,-0.00032439,-0.00009489,0.00010322
 ,-0.00005366,-0.00001866,0.00008572,-0.00008031,0.00016031,-0.00004576
 ,-0.00018855,0.00002726,0.00033561,-0.01630617,0.12492214,0.13110579,-
 0.00010422,-0.00018248,0.00048543,0.00005643,0.00026510,0.00004082,-0.
 00267594,-0.00384816,-0.00110108,-0.02448200,0.01205968,-0.00667672,-0
 .00104307,0.00316970,0.00145414,0.00008031,0.00026978,0.00163276,-0.00
 016336,-0.00042732,0.00001602,-0.21446856,0.10942480,-0.07500729,-0.00
 091417,0.00021750,0.00133606,0.00908459,-0.00567323,0.00427943,0.00039
 741,-0.00031539,-0.00038129,0.00221703,-0.00017544,-0.00059139,-0.0000
 1169,-0.00007473,-0.00000199,-0.00004438,-0.00007969,-0.00020467,0.000
 04344,-0.00002210,-0.00021541,0.00001014,0.00001698,-0.00002069,-0.000
 02246,-0.00003248,0.00012959,-0.00001981,0.00003290,-0.00001064,0.0000
 2784,0.00032465,0.00074064,0.23159831,0.00023529,0.00017008,0.00058541
 ,-0.00011348,0.00007842,0.00003967,-0.00138807,-0.00216463,-0.00007280
 ,-0.01515358,0.00965824,-0.00690921,-0.00066889,0.00117933,0.00013146,
 0.00122606,-0.00009888,0.00032581,0.00019551,-0.00024397,0.00003677,0.
 10716168,-0.12188310,0.04659360,-0.00044328,0.00027597,0.00092282,0.00
 403931,-0.00458015,0.00340491,-0.00028900,-0.00029635,0.00188380,-0.00
 015017,-0.00215664,-0.00097739,0.00003417,-0.00000708,0.00001327,-0.00
 000957,-0.00000240,-0.00014782,-0.00022857,0.00018331,0.00000125,-0.00
 001554,-0.00000423,0.00007836,0.00001787,0.00000825,0.00008847,-0.0000
 2543,0.00006584,0.00000895,0.02101058,-0.01140131,0.01082501,-0.115064
 05,0.13096895,0.00014092,-0.00009660,-0.00013936,0.00006732,-0.0000800
 5,-0.00004388,0.00055396,-0.00006975,0.00023889,0.00213206,-0.00208141
 ,0.00296320,-0.00021833,0.00033226,0.00042627,0.00212969,-0.00614800,-
 0.00604902,0.00037164,0.00190589,0.00002599,-0.06809725,0.04116240,-0.
 07764564,0.00027150,0.00043348,-0.00055910,-0.02516649,0.02838813,-0.0
 2342972,-0.00093027,0.00017150,0.00260527,0.00017319,-0.00043016,-0.00
 006920,-0.00000493,0.00001270,0.00000616,0.00004947,0.00000530,0.00007
 394,-0.00004891,0.00012835,0.00021405,-0.00003368,-0.00003372,-0.00002
 109,0.00004172,0.00010370,-0.00059125,0.00003097,-0.00005938,0.0000266
 2,0.01410968,-0.00661197,0.00786878,0.07459204,-0.05683230,0.09315057,
 -0.00030629,0.00004045,-0.00001839,-0.00003797,-0.00023969,-0.00004451
 ,-0.00079226,0.00002499,-0.00000834,-0.00007710,0.00047379,0.00110174,
 -0.00026566,-0.00033789,0.00048283,-0.01331388,0.00628647,0.00883347,-
 0.00194610,-0.00234378,-0.00068754,-0.00345326,-0.00060501,-0.00000858
 ,0.00018954,0.00020663,-0.00008424,-0.07602936,0.12934929,0.09965202,0
 .00554666,0.00509089,-0.00187331,0.00006832,0.00009910,-0.00030673,0.0
 0000403,0.00000327,0.00001253,0.00002297,0.00000258,0.00002115,-0.0000
 3313,-0.00005855,0.00005167,-0.00021412,0.00065640,-0.00037605,0.00022
 034,-0.00039837,0.00054569,0.00077750,0.00005651,0.00039338,0.00074229
 ,-0.00052843,-0.00203601,0.00043417,-0.00037082,-0.00016431,0.08846331
 ,0.00025085,-0.00032365,-0.00014212,-0.00011683,-0.00000052,0.00006117
 ,-0.00070140,-0.00015893,-0.00003357,0.00076507,0.00008367,0.00044416,
 -0.00172655,0.00118527,0.00079430,0.00459702,-0.01314738,-0.02473133,0
 .00007694,-0.00029817,-0.00040535,-0.00728907,0.00906054,0.00783981,0.
 00009566,0.00000794,-0.00011988,0.13703754,-0.24970522,-0.15001885,0.0
 0465331,-0.00268572,0.00471857,0.00103764,-0.00069415,-0.00046963,-0.0
 0007856,-0.00003949,-0.00000508,0.00004260,-0.00002776,-0.00000711,0.0
 0004708,-0.00008549,0.00005364,-0.00041957,0.00046066,-0.00011028,-0.0
 0022576,0.00040909,-0.00006552,-0.00060789,0.00057618,0.00170566,-0.00
 014424,-0.00027436,0.00187668,0.00011398,0.00025035,-0.00020036,-0.137
 40782,0.25540714,-0.00001465,0.00024244,-0.00001468,-0.00002283,0.0001
 0236,0.00003055,0.00047205,0.00014779,-0.00003553,-0.00063426,0.000067
 93,0.00008526,0.00117750,-0.00065640,-0.00045907,-0.00750422,0.0078752
 6,0.01496701,-0.00117985,0.00076308,-0.00054350,0.00917204,-0.02418038
 ,-0.01314416,-0.00012162,-0.00007682,0.00014088,0.10593080,-0.15217877
 ,-0.19827514,-0.00244249,0.00612206,-0.00013486,-0.00069166,-0.0000979
 3,0.00043918,0.00005498,0.00001752,-0.00000366,-0.00003007,0.00002341,
 -0.00000700,-0.00010596,0.00009400,-0.00009778,0.00013293,0.00005092,-
 0.00025314,0.00016284,-0.00037636,-0.00000614,0.00037514,0.00110070,-0
 .00162660,0.00125156,0.00214415,-0.00536944,-0.00049577,-0.00000003,0.
 00094854,-0.10548647,0.15881508,0.20335928\\-0.00001126,0.00000280,0.0
 0000295,0.00000773,-0.00001602,-0.00000415,-0.00000724,-0.00000514,0.0
 0000133,0.00000401,-0.00000591,-0.00000034,-0.00000033,0.00000983,0.00
 000015,-0.00001142,0.00002430,0.00000163,-0.00000245,-0.00000073,-0.00
 000146,-0.00000005,-0.00000069,-0.00000675,0.00000114,0.00001281,0.000
 00165,0.00000435,-0.00001097,0.00000539,0.00000518,-0.00001023,-0.0000
 0273,0.00000446,-0.00000251,-0.00000093,0.00000304,-0.00000055,-0.0000
 0053,-0.00000036,0.00000280,0.00000014,-0.00000081,-0.00000045,0.00000
 073,0.00000096,0.,-0.00000073,0.00000092,-0.00000078,-0.00000081,0.000
 00075,0.,0.00000049,0.00000004,0.00000004,0.00000012,0.00000131,0.0000
 0081,0.00000242,0.00000003,0.00000063,0.00000144\\\@


 ERWIN WITH HIS PSI CAN DO
 CALCULATIONS QUITE A FEW.
 BUT ONE THING HAS NOT BEEN SEEN
 JUST WHAT DOES PSI REALLY MEAN.
 -- WALTER HUCKEL, TRANS. BY FELIX BLOCH
 Job cpu time:  0 days  1 hours  9 minutes 53.7 seconds.
 File lengths (MBytes):  RWF=    119 Int=      0 D2E=      0 Chk=      4 Scr=      1
 Normal termination of Gaussian 09 at Fri Feb 16 20:29:02 2018.
