 Entering Gaussian System, Link 0=g09
 Initial command:
 /home/fb_chem/chemsoft/lx24-amd64/Gaussian_09_C.01_NBO_3.1_64_istanbul-64/g09/l1.exe /local/2400054.1.parallel/Gau-24021.inp -scrdir=/local/2400054.1.parallel/
 Entering Link 1 = /home/fb_chem/chemsoft/lx24-amd64/Gaussian_09_C.01_NBO_3.1_64_istanbul-64/g09/l1.exe PID=     24022.
  
 Copyright (c) 1988,1990,1992,1993,1995,1998,2003,2009,2011,
            Gaussian, Inc.  All Rights Reserved.
  
 This is part of the Gaussian(R) 09 program.  It is based on
 the Gaussian(R) 03 system (copyright 2003, Gaussian, Inc.),
 the Gaussian(R) 98 system (copyright 1998, Gaussian, Inc.),
 the Gaussian(R) 94 system (copyright 1995, Gaussian, Inc.),
 the Gaussian 92(TM) system (copyright 1992, Gaussian, Inc.),
 the Gaussian 90(TM) system (copyright 1990, Gaussian, Inc.),
 the Gaussian 88(TM) system (copyright 1988, Gaussian, Inc.),
 the Gaussian 86(TM) system (copyright 1986, Carnegie Mellon
 University), and the Gaussian 82(TM) system (copyright 1983,
 Carnegie Mellon University). Gaussian is a federally registered
 trademark of Gaussian, Inc.
  
 This software contains proprietary and confidential information,
 including trade secrets, belonging to Gaussian, Inc.
  
 This software is provided under written license and may be
 used, copied, transmitted, or stored only in accord with that
 written license.
  
 The following legend is applicable only to US Government
 contracts under FAR:
  
                    RESTRICTED RIGHTS LEGEND
  
 Use, reproduction and disclosure by the US Government is
 subject to restrictions as set forth in subparagraphs (a)
 and (c) of the Commercial Computer Software - Restricted
 Rights clause in FAR 52.227-19.
  
 Gaussian, Inc.
 340 Quinnipiac St., Bldg. 40, Wallingford CT 06492
  
  
 ---------------------------------------------------------------
 Warning -- This program may not be used in any manner that
 competes with the business of Gaussian, Inc. or will provide
 assistance to any competitor of Gaussian, Inc.  The licensee
 of this program is prohibited from giving any competitor of
 Gaussian, Inc. access to this program.  By using this program,
 the user acknowledges that Gaussian, Inc. is engaged in the
 business of creating and licensing software in the field of
 computational chemistry and represents and warrants to the
 licensee that it is not a competitor of Gaussian, Inc. and that
 it will not use this program in any manner prohibited above.
 ---------------------------------------------------------------
  

 Cite this work as:
 Gaussian 09, Revision C.01,
 M. J. Frisch, G. W. Trucks, H. B. Schlegel, G. E. Scuseria, 
 M. A. Robb, J. R. Cheeseman, G. Scalmani, V. Barone, B. Mennucci, 
 G. A. Petersson, H. Nakatsuji, M. Caricato, X. Li, H. P. Hratchian, 
 A. F. Izmaylov, J. Bloino, G. Zheng, J. L. Sonnenberg, M. Hada, 
 M. Ehara, K. Toyota, R. Fukuda, J. Hasegawa, M. Ishida, T. Nakajima, 
 Y. Honda, O. Kitao, H. Nakai, T. Vreven, J. A. Montgomery, Jr., 
 J. E. Peralta, F. Ogliaro, M. Bearpark, J. J. Heyd, E. Brothers, 
 K. N. Kudin, V. N. Staroverov, T. Keith, R. Kobayashi, J. Normand, 
 K. Raghavachari, A. Rendell, J. C. Burant, S. S. Iyengar, J. Tomasi, 
 M. Cossi, N. Rega, J. M. Millam, M. Klene, J. E. Knox, J. B. Cross, 
 V. Bakken, C. Adamo, J. Jaramillo, R. Gomperts, R. E. Stratmann, 
 O. Yazyev, A. J. Austin, R. Cammi, C. Pomelli, J. W. Ochterski, 
 R. L. Martin, K. Morokuma, V. G. Zakrzewski, G. A. Voth, 
 P. Salvador, J. J. Dannenberg, S. Dapprich, A. D. Daniels, 
 O. Farkas, J. B. Foresman, J. V. Ortiz, J. Cioslowski, 
 and D. J. Fox, Gaussian, Inc., Wallingford CT, 2010.
 
 ******************************************
 Gaussian 09:  AM64L-G09RevC.01 23-Sep-2011
                17-Feb-2018 
 ******************************************
 %nprocs=2
 Will use up to    2 processors via shared memory.
 %chk=frag33-conf1.chk
 ----------------------------------------------------------------------
 #HF/6-31G* Geom=AllCheck Guess=Read Pop=(MK,ReadRadii) Integral=(Grid=
 UltraFine) iop(6/33=2)
 ----------------------------------------------------------------------
 1/29=7,38=1/1;
 2/12=2,40=1/2;
 3/5=1,6=6,7=1,11=9,14=-4,16=1,25=1,30=1,75=-5,116=-2/1,2,3;
 4/5=1/1;
 5/5=2,38=6/2;
 6/7=2,8=2,9=2,10=2,15=8,20=101,28=1,33=2/1,2;
 99/5=1,9=1/99;
 Structure from the checkpoint file:  frag33-conf1.chk
 -----------------------------
 Optimization for frag33-conf1
 -----------------------------
 Charge =  0 Multiplicity = 1
 Redundant internal coordinates found in file.
 C,0,-1.1284384738,-1.6331931425,4.3725966623
 C,0,0.7919669049,-4.089701769,2.5936914481
 C,0,2.2464331925,-4.576759053,4.6007685962
 C,0,-2.775959392,-2.0573474818,6.1154377745
 C,0,-0.6477770588,-1.0108073498,6.762653086
 C,0,-1.7221510174,1.0248545773,2.2290610491
 C,0,1.3699176898,-2.2465069885,4.3134078009
 C,0,0.2896910714,-1.1950454902,3.9372363924
 C,0,1.072169591,-3.7410260669,4.0644779674
 N,0,0.3020629057,-0.9211036449,2.4970032606
 N,0,-1.4782929719,-1.5412030857,5.6910806086
 O,0,-1.9006453637,-2.0778319748,3.5196475148
 O,0,0.234084916,0.6121427442,0.5075870462
 O,0,0.8047047554,1.535538513,2.8293785531
 S,0,0.0285634412,0.6509487898,1.9543971875
 H,0,1.5798489265,-3.7051527096,1.9350112676
 H,0,0.7470561965,-5.17736404,2.4629575948
 H,0,-0.1696055319,-3.6876240644,2.2612306144
 H,0,3.1671391267,-4.3620775298,4.0432394767
 H,0,2.4424848486,-4.3685630995,5.6597414765
 H,0,2.0410834274,-5.6487191542,4.5019517009
 H,0,-2.6437406871,-2.8613858888,6.8507739835
 H,0,-3.2994508078,-2.4423150529,5.2421477841
 H,0,-3.3687452699,-1.2588374161,6.5790088989
 H,0,-1.2295267518,-0.2938298569,7.3547528898
 H,0,0.2275566861,-0.4929473507,6.375160576
 H,0,-0.3112340445,-1.8117542271,7.434912614
 H,0,-1.8981905035,2.0205958092,1.815565225
 H,0,-2.3322870225,0.2809385818,1.7147048446
 H,0,-1.9333261074,1.0182007775,3.2996685907
 H,0,2.2779553885,-1.9566702872,3.7710167088
 H,0,1.5931873798,-2.1254920229,5.3817299013
 H,0,0.5788089225,-0.2552390452,4.4141115082
 H,0,0.1793817452,-4.0125816917,4.6476206834
 H,0,-0.2789516571,-1.5747388815,1.9743186067
 Recover connectivity data from disk.
                          Input orientation:                          
 ---------------------------------------------------------------------
 Center     Atomic      Atomic             Coordinates (Angstroms)
 Number     Number       Type             X           Y           Z
 ---------------------------------------------------------------------
      1          6           0       -1.128438   -1.633193    4.372597
      2          6           0        0.791967   -4.089702    2.593691
      3          6           0        2.246433   -4.576759    4.600769
      4          6           0       -2.775959   -2.057347    6.115438
      5          6           0       -0.647777   -1.010807    6.762653
      6          6           0       -1.722151    1.024855    2.229061
      7          6           0        1.369918   -2.246507    4.313408
      8          6           0        0.289691   -1.195045    3.937236
      9          6           0        1.072170   -3.741026    4.064478
     10          7           0        0.302063   -0.921104    2.497003
     11          7           0       -1.478293   -1.541203    5.691081
     12          8           0       -1.900645   -2.077832    3.519648
     13          8           0        0.234085    0.612143    0.507587
     14          8           0        0.804705    1.535539    2.829379
     15         16           0        0.028563    0.650949    1.954397
     16          1           0        1.579849   -3.705153    1.935011
     17          1           0        0.747056   -5.177364    2.462958
     18          1           0       -0.169606   -3.687624    2.261231
     19          1           0        3.167139   -4.362078    4.043239
     20          1           0        2.442485   -4.368563    5.659741
     21          1           0        2.041083   -5.648719    4.501952
     22          1           0       -2.643741   -2.861386    6.850774
     23          1           0       -3.299451   -2.442315    5.242148
     24          1           0       -3.368745   -1.258837    6.579009
     25          1           0       -1.229527   -0.293830    7.354753
     26          1           0        0.227557   -0.492947    6.375161
     27          1           0       -0.311234   -1.811754    7.434913
     28          1           0       -1.898191    2.020596    1.815565
     29          1           0       -2.332287    0.280939    1.714705
     30          1           0       -1.933326    1.018201    3.299669
     31          1           0        2.277955   -1.956670    3.771017
     32          1           0        1.593187   -2.125492    5.381730
     33          1           0        0.578809   -0.255239    4.414112
     34          1           0        0.179382   -4.012582    4.647621
     35          1           0       -0.278952   -1.574739    1.974319
 ---------------------------------------------------------------------
                    Distance matrix (angstroms):
                    1          2          3          4          5
     1  C    0.000000
     2  C    3.589832   0.000000
     3  C    4.484016   2.526075   0.000000
     4  C    2.435514   5.409553   5.819457   0.000000
     5  C    2.516102   5.378912   5.076043   2.458311   0.000000
     6  C    3.465899   5.710729   7.263108   5.070937   5.084452
     7  C    2.573216   2.586275   2.506178   4.524532   3.405415
     8  C    1.546804   3.230546   3.962966   3.858282   2.982578
     9  C    3.062772   1.537303   1.537840   4.674324   4.206241
    10  N    2.463992   3.207705   4.644375   4.884500   4.371042
    11  N    1.367209   4.608985   4.927166   1.459597   1.455797
    12  O    1.233503   3.486427   4.961020   2.739475   3.636661
    13  O    4.672933   5.174013   6.908573   6.901778   6.522078
    14  O    4.019879   5.630190   6.525074   6.043854   4.905530
    15  S    3.521881   4.844094   6.265074   5.702147   5.132075
    16  H    4.191618   1.096584   2.882758   6.258138   5.960532
    17  H    4.441323   1.096411   2.679383   5.957076   6.147612
    18  H    3.098050   1.093992   3.478684   4.930091   5.258973
    19  H    5.099733   2.795858   1.097555   6.702701   5.760192
    20  H    4.678727   3.493227   1.096907   5.725516   4.694748
    21  H    5.117328   2.762659   1.095916   6.221349   5.818158
    22  H    3.153722   5.606746   5.649675   1.097579   2.723284
    23  H    2.474690   5.144697   5.976960   1.088521   3.375281
    24  H    3.166603   6.419352   6.815590   1.097229   2.738414
    25  H    3.270683   6.415823   6.165242   2.652800   1.096846
    26  H    2.673789   5.249258   4.888952   3.396456   1.088365
    27  H    3.174506   5.462922   4.713734   2.806457   1.098504
    28  H    4.525605   6.721470   8.274077   5.990743   5.935202
    29  H    3.489633   5.443903   7.272638   5.003087   5.476127
    30  H    2.971348   5.832349   7.104001   4.254126   4.214472
    31  H    3.474198   2.853783   2.748517   5.572118   4.290041
    32  H    2.944139   3.503317   2.654306   4.430848   2.858565
    33  H    2.194351   4.249996   4.635876   4.170920   2.755185
    34  H    2.729015   2.144722   2.143174   3.835553   3.764067
    35  H    2.544952   2.802771   4.721010   4.859715   4.835514
                    6          7          8          9         10
     6  C    0.000000
     7  C    4.960564   0.000000
     8  C    3.448670   1.553694   0.000000
     9  C    5.821563   1.544088   2.666548   0.000000
    10  N    2.820636   2.489244   1.466107   3.316927   0.000000
    11  N    4.316213   3.241564   2.514272   3.740310   3.708951
    12  O    3.365136   3.369731   2.398180   3.449737   2.689934
    13  O    2.638307   4.893492   3.877050   5.683655   2.512617
    14  O    2.646919   4.101911   2.991434   5.425785   2.529469
    15  S    1.811145   3.969813   2.721678   4.983071   1.685400
    16  H    5.776040   2.797944   3.460354   2.189441   3.114402
    17  H    6.679761   3.521654   4.271012   2.175691   4.279595
    18  H    4.961742   2.942513   3.038568   2.190105   2.816327
    19  H    7.497696   2.789020   4.280308   2.185190   4.737068
    20  H    7.629070   2.732423   4.203898   2.194637   5.144832
    21  H    7.991530   3.472904   4.818868   2.183912   5.421656
    22  H    6.108390   4.788085   4.457624   4.727071   5.603372
    23  H    4.856731   4.764861   4.017513   4.710055   4.777112
    24  H    5.181560   5.344471   4.513002   5.675020   5.500152
    25  H    5.315480   4.451948   3.847029   5.292152   5.131956
    26  H    4.826513   2.937820   2.537770   4.074634   3.902432
    27  H    6.094089   3.571985   3.602108   4.122587   5.054932
    28  H    1.092460   5.926881   4.430425   6.861263   3.736184
    29  H    1.090981   5.181463   3.740714   5.769572   2.999449
    30  H    1.091256   4.753673   3.201056   5.680509   3.066290
    31  H    5.221874   1.096689   2.135626   2.173468   2.568980
    32  H    5.554770   1.098092   2.156709   2.148619   3.382189
    33  H    3.421623   2.145027   1.092811   3.537847   2.048235
    34  H    5.902628   2.155944   2.907804   1.100394   3.767949
    35  H    2.984226   2.939623   2.078598   3.299560   1.018831
                   11         12         13         14         15
    11  N    0.000000
    12  O    2.276285   0.000000
    13  O    5.868368   4.567882   0.000000
    14  O    4.782024   4.566381   2.563003   0.000000
    15  S    4.586823   3.690271   1.461850   1.466454   0.000000
    16  H    5.304995   4.156090   4.742116   5.372670   4.624120
    17  H    5.347394   4.211178   6.132292   6.723143   5.894412
    18  H    4.252488   2.677974   4.661140   5.343548   4.353921
    19  H    5.679151   5.583401   6.771005   6.468109   6.272508
    20  H    4.833989   5.356326   7.498610   6.749199   6.689700
    21  H    5.538206   5.408640   7.643205   7.479284   7.087037
    22  H    2.108563   3.501793   7.783528   6.884500   6.591829
    23  H    2.080903   2.248669   6.650688   6.203940   5.608321
    24  H    2.107595   3.490811   7.303637   6.267850   6.047811
    25  H    2.094190   4.282651   7.060214   5.288071   5.624877
    26  H    2.115828   3.898084   5.970736   4.125582   4.570694
    27  H    2.115697   4.233949   7.359381   5.801778   6.018008
    28  H    5.280374   4.438582   2.870740   2.927241   2.368035
    29  H    4.456576   3.001322   2.855362   3.557701   2.401661
    30  H    3.532203   3.104010   3.557847   2.825885   2.406998
    31  H    4.238946   4.187908   4.628842   3.905467   3.893526
    32  H    3.141828   3.959355   5.753179   4.532036   4.680094
    33  H    2.741536   3.204622   4.016481   2.401935   2.678459
    34  H    3.153475   3.056484   6.207330   5.871854   5.387459
    35  H    3.905620   2.295873   2.682715   3.402832   2.246920
                   16         17         18         19         20
    16  H    0.000000
    17  H    1.771913   0.000000
    18  H    1.779696   1.760763   0.000000
    19  H    2.719497   3.003129   3.842435   0.000000
    20  H    3.880447   3.707838   4.340112   1.771509   0.000000
    21  H    3.252594   2.460524   3.708621   1.770273   1.772117
    22  H    6.535700   6.009508   5.279008   6.625757   5.436895
    23  H    6.028223   5.619485   4.498065   6.851252   6.070802
    24  H    7.213859   7.016876   5.897178   7.666682   6.654761
    25  H    6.993090   7.189259   6.211702   6.844518   5.741096
    26  H    5.644633   6.125273   5.223803   5.389728   4.520855
    27  H    6.116377   6.096527   5.505082   5.486955   4.155896
    28  H    6.700390   7.695913   5.980836   8.447403   8.627891
    29  H    5.589478   6.311522   4.552513   7.564612   7.744651
    30  H    6.042744   6.802173   5.131652   7.450841   7.330409
    31  H    2.629726   3.798360   3.356517   2.578902   3.067830
    32  H    3.791487   4.306866   3.909631   3.044864   2.414532
    33  H    4.364622   5.297417   4.120229   4.868585   4.684476
    34  H    3.068236   2.540025   2.433567   3.068243   2.504545
    35  H    2.827605   3.777614   2.135078   4.891343   5.366005
                   21         22         23         24         25
    21  H    0.000000
    22  H    5.935804   0.000000
    23  H    6.272976   1.786968   0.000000
    24  H    7.269902   1.779789   1.786790   0.000000
    25  H    6.892765   2.974280   3.655636   2.471695   0.000000
    26  H    5.777523   3.752340   4.186112   3.682598   1.767015
    27  H    5.371960   2.623649   3.759689   3.222835   1.775889
    28  H    9.030667   7.052866   5.798497   5.967211   6.040387
    29  H    7.877560   6.029130   4.560084   5.206401   5.775516
    30  H    7.854250   5.307187   4.196986   4.242570   4.319776
    31  H    3.771154   5.875926   5.788570   6.344842   5.283052
    32  H    3.658927   4.544358   4.904872   5.177388   3.900708
    33  H    5.588881   4.807718   4.528780   4.612719   3.452382
    34  H    2.482760   3.761536   3.862833   4.889026   4.810686
    35  H    5.326238   5.570234   4.533741   5.554259   5.611898
                   26         27         28         29         30
    26  H    0.000000
    27  H    1.775562   0.000000
    28  H    5.623754   6.984440   0.000000
    29  H    5.373225   6.417538   1.795834   0.000000
    30  H    4.051128   5.266884   1.791255   1.792996   0.000000
    31  H    3.623284   4.488768   6.089551   5.521743   5.177540
    32  H    2.348841   2.817945   6.488243   5.886198   5.162759
    33  H    2.006389   3.512856   4.250576   4.006091   3.028936
    34  H    3.921038   3.585156   6.981123   5.774495   5.620434
    35  H    4.560069   5.465831   3.946336   2.779771   3.349156
                   31         32         33         34         35
    31  H    0.000000
    32  H    1.758353   0.000000
    33  H    2.489084   2.337327   0.000000
    34  H    3.065814   2.469589   3.785722   0.000000
    35  H    3.148296   3.926663   2.903347   3.646874   0.000000
 Stoichiometry    C9H20N2O3S
 Framework group  C1[X(C9H20N2O3S)]
 Deg. of freedom    99
 Full point group                 C1      NOp   1
 Largest Abelian subgroup         C1      NOp   1
 Largest concise Abelian subgroup C1      NOp   1
                         Standard orientation:                         
 ---------------------------------------------------------------------
 Center     Atomic      Atomic             Coordinates (Angstroms)
 Number     Number       Type             X           Y           Z
 ---------------------------------------------------------------------
      1          6           0       -0.626730    1.010564   -0.429840
      2          6           0       -1.652063   -2.320174   -1.291098
      3          6           0       -3.389916   -2.384813    0.541045
      4          6           0       -1.873685    3.064792   -0.826043
      5          6           0       -1.635765    2.282547    1.492314
      6          6           0        2.826912    1.168525   -0.674508
      7          6           0       -1.299700   -1.060980    0.940289
      8          6           0       -0.144494   -0.110628    0.520413
      9          6           0       -2.298637   -1.538724   -0.135858
     10          7           0        0.947566   -0.857882   -0.110844
     11          7           0       -1.325813    2.066008    0.086475
     12          8           0       -0.387661    0.910558   -1.635814
     13          8           0        3.373605   -1.404395   -0.469872
     14          8           0        2.635181   -0.126901    1.625772
     15         16           0        2.541401   -0.398409    0.187726
     16          1           0       -1.019052   -3.134038   -0.917709
     17          1           0       -2.425304   -2.763070   -1.929894
     18          1           0       -1.045841   -1.668829   -1.927542
     19          1           0       -2.964362   -3.298455    0.975543
     20          1           0       -3.888699   -1.833767    1.347748
     21          1           0       -4.155726   -2.686998   -0.182316
     22          1           0       -2.967059    3.102002   -0.737579
     23          1           0       -1.597692    2.794469   -1.843703
     24          1           0       -1.473376    4.057870   -0.586332
     25          1           0       -1.378987    3.312548    1.768420
     26          1           0       -1.070826    1.612156    2.137262
     27          1           0       -2.706747    2.135970    1.687818
     28          1           0        3.879230    1.420931   -0.524879
     29          1           0        2.609280    1.038315   -1.735602
     30          1           0        2.188575    1.942803   -0.245722
     31          1           0       -0.823010   -1.929026    1.411448
     32          1           0       -1.875326   -0.556236    1.727496
     33          1           0        0.279323    0.302484    1.439081
     34          1           0       -2.787127   -0.651292   -0.565636
     35          1           0        0.803504   -0.980918   -1.111906
 ---------------------------------------------------------------------
 Rotational constants (GHZ):      0.6217027      0.3919577      0.2997435
 Standard basis: 6-31G(d) (6D, 7F)
 There are   269 symmetry adapted basis functions of A   symmetry.
 Integral buffers will be    131072 words long.
 Raffenetti 1 integral format.
 Two-electron integral symmetry is turned on.
   269 basis functions,   524 primitive gaussians,   269 cartesian basis functions
    64 alpha electrons       64 beta electrons
       nuclear repulsion energy      1294.7252391518 Hartrees.
 NAtoms=   35 NActive=   35 NUniq=   35 SFac= 1.00D+00 NAtFMM=   60 NAOKFM=F Big=F
 One-electron integrals computed using PRISM.
 NBasis=   269 RedAO= T  NBF=   269
 NBsUse=   269 1.00D-06 NBFU=   269
 Initial guess read from the checkpoint file:  frag33-conf1.chk
 B after Tr=     0.000000    0.000000    0.000000
         Rot=    1.000000    0.000000    0.000000    0.000000 Ang=   0.00 deg.
 Initial guess orbital symmetries:
       Occupied  (A) (A) (A) (A) (A) (A) (A) (A) (A) (A) (A) (A)
                 (A) (A) (A) (A) (A) (A) (A) (A) (A) (A) (A) (A)
                 (A) (A) (A) (A) (A) (A) (A) (A) (A) (A) (A) (A)
                 (A) (A) (A) (A) (A) (A) (A) (A) (A) (A) (A) (A)
                 (A) (A) (A) (A) (A) (A) (A) (A) (A) (A) (A) (A)
                 (A) (A) (A) (A)
       Virtual   (A) (A) (A) (A) (A) (A) (A) (A) (A) (A) (A) (A)
                 (A) (A) (A) (A) (A) (A) (A) (A) (A) (A) (A) (A)
                 (A) (A) (A) (A) (A) (A) (A) (A) (A) (A) (A) (A)
                 (A) (A) (A) (A) (A) (A) (A) (A) (A) (A) (A) (A)
                 (A) (A) (A) (A) (A) (A) (A) (A) (A) (A) (A) (A)
                 (A) (A) (A) (A) (A) (A) (A) (A) (A) (A) (A) (A)
                 (A) (A) (A) (A) (A) (A) (A) (A) (A) (A) (A) (A)
                 (A) (A) (A) (A) (A) (A) (A) (A) (A) (A) (A) (A)
                 (A) (A) (A) (A) (A) (A) (A) (A) (A) (A) (A) (A)
                 (A) (A) (A) (A) (A) (A) (A) (A) (A) (A) (A) (A)
                 (A) (A) (A) (A) (A) (A) (A) (A) (A) (A) (A) (A)
                 (A) (A) (A) (A) (A) (A) (A) (A) (A) (A) (A) (A)
                 (A) (A) (A) (A) (A) (A) (A) (A) (A) (A) (A) (A)
                 (A) (A) (A) (A) (A) (A) (A) (A) (A) (A) (A) (A)
                 (A) (A) (A) (A) (A) (A) (A) (A) (A) (A) (A) (A)
                 (A) (A) (A) (A) (A) (A) (A) (A) (A) (A) (A) (A)
                 (A) (A) (A) (A) (A) (A) (A) (A) (A) (A) (A) (A)
                 (A)
 Requested convergence on RMS density matrix=1.00D-08 within 128 cycles.
 Requested convergence on MAX density matrix=1.00D-06.
 Requested convergence on             energy=1.00D-06.
 No special actions if energy rises.
 SCF Done:  E(RHF) =  -1083.37953676     A.U. after   13 cycles
             Convg  =    0.4683D-08             -V/T =  2.0021

 **********************************************************************

            Population analysis using the SCF density.

 **********************************************************************

 Orbital symmetries:
 BldTbl:  Degeneracy threshold= 1.00D-02
       Occupied  (A) (A) (A) (A) (A) (A) (A) (A) (A) (A) (A) (A)
                 (A) (A) (A) (A) (A) (A) (A) (A) (A) (A) (A) (A)
                 (A) (A) (A) (A) (A) (A) (A) (A) (A) (A) (A) (A)
                 (A) (A) (A) (A) (A) (A) (A) (A) (A) (A) (A) (A)
                 (A) (A) (A) (A) (A) (A) (A) (A) (A) (A) (A) (A)
                 (A) (A) (A) (A)
       Virtual   (A) (A) (A) (A) (A) (A) (A) (A) (A) (A) (A) (A)
                 (A) (A) (A) (A) (A) (A) (A) (A) (A) (A) (A) (A)
                 (A) (A) (A) (A) (A) (A) (A) (A) (A) (A) (A) (A)
                 (A) (A) (A) (A) (A) (A) (A) (A) (A) (A) (A) (A)
                 (A) (A) (A) (A) (A) (A) (A) (A) (A) (A) (A) (A)
                 (A) (A) (A) (A) (A) (A) (A) (A) (A) (A) (A) (A)
                 (A) (A) (A) (A) (A) (A) (A) (A) (A) (A) (A) (A)
                 (A) (A) (A) (A) (A) (A) (A) (A) (A) (A) (A) (A)
                 (A) (A) (A) (A) (A) (A) (A) (A) (A) (A) (A) (A)
                 (A) (A) (A) (A) (A) (A) (A) (A) (A) (A) (A) (A)
                 (A) (A) (A) (A) (A) (A) (A) (A) (A) (A) (A) (A)
                 (A) (A) (A) (A) (A) (A) (A) (A) (A) (A) (A) (A)
                 (A) (A) (A) (A) (A) (A) (A) (A) (A) (A) (A) (A)
                 (A) (A) (A) (A) (A) (A) (A) (A) (A) (A) (A) (A)
                 (A) (A) (A) (A) (A) (A) (A) (A) (A) (A) (A) (A)
                 (A) (A) (A) (A) (A) (A) (A) (A) (A) (A) (A) (A)
                 (A) (A) (A) (A) (A) (A) (A) (A) (A) (A) (A) (A)
                 (A)
 The electronic state is 1-A.
 Alpha  occ. eigenvalues --  -92.20637 -20.55256 -20.54932 -20.54601 -15.61807
 Alpha  occ. eigenvalues --  -15.60327 -11.37496 -11.30189 -11.29069 -11.27399
 Alpha  occ. eigenvalues --  -11.27326 -11.24566 -11.24196 -11.22311 -11.21619
 Alpha  occ. eigenvalues --   -9.17733  -6.86326  -6.86312  -6.86216  -1.44825
 Alpha  occ. eigenvalues --   -1.39877  -1.33054  -1.26445  -1.23603  -1.10022
 Alpha  occ. eigenvalues --   -1.03909  -1.01537  -0.99088  -0.95680  -0.93403
 Alpha  occ. eigenvalues --   -0.88883  -0.82940  -0.78966  -0.75547  -0.73822
 Alpha  occ. eigenvalues --   -0.70152  -0.68154  -0.67724  -0.66487  -0.65015
 Alpha  occ. eigenvalues --   -0.63913  -0.61582  -0.61052  -0.60627  -0.59925
 Alpha  occ. eigenvalues --   -0.59164  -0.58530  -0.57693  -0.57043  -0.55431
 Alpha  occ. eigenvalues --   -0.54901  -0.54228  -0.53240  -0.52192  -0.49615
 Alpha  occ. eigenvalues --   -0.48557  -0.47505  -0.47345  -0.47157  -0.45990
 Alpha  occ. eigenvalues --   -0.45663  -0.43718  -0.41783  -0.39140
 Alpha virt. eigenvalues --    0.16604   0.19036   0.22344   0.22687   0.23323
 Alpha virt. eigenvalues --    0.25058   0.26036   0.26129   0.27136   0.27631
 Alpha virt. eigenvalues --    0.27868   0.28668   0.28759   0.29361   0.29851
 Alpha virt. eigenvalues --    0.30966   0.31121   0.31224   0.31743   0.32294
 Alpha virt. eigenvalues --    0.32499   0.33633   0.34111   0.36543   0.36589
 Alpha virt. eigenvalues --    0.37349   0.38716   0.39699   0.41751   0.42508
 Alpha virt. eigenvalues --    0.44468   0.45811   0.49278   0.51943   0.53609
 Alpha virt. eigenvalues --    0.56528   0.59955   0.62823   0.66737   0.67747
 Alpha virt. eigenvalues --    0.69342   0.70122   0.71778   0.72032   0.73505
 Alpha virt. eigenvalues --    0.74047   0.75236   0.76189   0.77556   0.79227
 Alpha virt. eigenvalues --    0.82489   0.83197   0.87753   0.88226   0.90299
 Alpha virt. eigenvalues --    0.90462   0.91992   0.93244   0.94890   0.95928
 Alpha virt. eigenvalues --    0.96445   0.99048   1.00152   1.01603   1.02429
 Alpha virt. eigenvalues --    1.03959   1.04988   1.05482   1.06656   1.08900
 Alpha virt. eigenvalues --    1.09291   1.10459   1.10798   1.11583   1.12508
 Alpha virt. eigenvalues --    1.13367   1.14062   1.15016   1.15412   1.16332
 Alpha virt. eigenvalues --    1.17282   1.17701   1.18110   1.19160   1.19601
 Alpha virt. eigenvalues --    1.20287   1.20917   1.21375   1.22515   1.23388
 Alpha virt. eigenvalues --    1.23992   1.25164   1.26624   1.28246   1.29834
 Alpha virt. eigenvalues --    1.30779   1.31828   1.33178   1.35436   1.36384
 Alpha virt. eigenvalues --    1.38630   1.40754   1.42489   1.44915   1.48309
 Alpha virt. eigenvalues --    1.49308   1.51310   1.53661   1.55918   1.57771
 Alpha virt. eigenvalues --    1.59420   1.63698   1.64991   1.66271   1.69529
 Alpha virt. eigenvalues --    1.70284   1.73213   1.75388   1.77113   1.81892
 Alpha virt. eigenvalues --    1.84674   1.87438   1.90044   1.91709   1.96301
 Alpha virt. eigenvalues --    1.99664   2.01358   2.02672   2.04902   2.07175
 Alpha virt. eigenvalues --    2.07844   2.10288   2.11129   2.11967   2.14000
 Alpha virt. eigenvalues --    2.14829   2.16309   2.17588   2.19008   2.21354
 Alpha virt. eigenvalues --    2.23432   2.24172   2.26100   2.27988   2.29326
 Alpha virt. eigenvalues --    2.29856   2.32796   2.34340   2.35681   2.36947
 Alpha virt. eigenvalues --    2.37744   2.39312   2.41425   2.42012   2.42683
 Alpha virt. eigenvalues --    2.45417   2.46932   2.47509   2.51679   2.53379
 Alpha virt. eigenvalues --    2.53983   2.55362   2.57257   2.58724   2.58981
 Alpha virt. eigenvalues --    2.60529   2.61981   2.62909   2.67016   2.68983
 Alpha virt. eigenvalues --    2.72767   2.74326   2.77070   2.80605   2.81771
 Alpha virt. eigenvalues --    2.84627   2.86812   2.87753   2.94142   2.98658
 Alpha virt. eigenvalues --    3.00691   3.05257   3.08166   3.11190   3.12777
 Alpha virt. eigenvalues --    3.17703   3.23925   3.30539   3.38525   3.53818
 Alpha virt. eigenvalues --    4.19062   4.33491   4.38019   4.39903   4.48987
 Alpha virt. eigenvalues --    4.53313   4.59979   4.64704   4.66565   4.71525
 Alpha virt. eigenvalues --    4.73360   4.77371   4.90015   5.01199   5.06972
          Condensed to atoms (all electrons):
              1          2          3          4          5          6
     1  C    4.234559  -0.000707   0.000000  -0.029852  -0.026391   0.001241
     2  C   -0.000707   5.164530  -0.064055  -0.000002  -0.000004   0.000002
     3  C    0.000000  -0.064055   5.131190   0.000000  -0.000006   0.000000
     4  C   -0.029852  -0.000002   0.000000   4.978574  -0.049254   0.000009
     5  C   -0.026391  -0.000004  -0.000006  -0.049254   4.956997   0.000006
     6  C    0.001241   0.000002   0.000000   0.000009   0.000006   5.521854
     7  C   -0.054078  -0.056320  -0.065024  -0.000294  -0.003460  -0.000128
     8  C    0.337933  -0.000803   0.004179   0.003070  -0.001538  -0.000787
     9  C   -0.004229   0.337083   0.354532   0.000040   0.000311   0.000001
    10  N   -0.058785  -0.003072  -0.000143  -0.000086   0.000214  -0.062745
    11  N    0.292406   0.000039  -0.000027   0.211424   0.219898  -0.000473
    12  O    0.545795  -0.003875   0.000023  -0.007402   0.001665   0.001563
    13  O   -0.000096  -0.000004   0.000000   0.000000   0.000000  -0.059497
    14  O   -0.000240  -0.000001   0.000000   0.000000   0.000003  -0.058751
    15  S   -0.005973  -0.000185   0.000000  -0.000021   0.000024   0.292263
    16  H    0.000128   0.386830  -0.002351   0.000000   0.000000   0.000000
    17  H    0.000017   0.392476  -0.005065   0.000000   0.000000   0.000000
    18  H   -0.000609   0.387346   0.004307   0.000003  -0.000002  -0.000003
    19  H   -0.000002  -0.003070   0.388056   0.000000   0.000000   0.000000
    20  H    0.000004   0.004540   0.390600   0.000000   0.000000   0.000000
    21  H    0.000001  -0.003613   0.393269   0.000000   0.000000   0.000000
    22  H    0.001354  -0.000001   0.000000   0.398866  -0.001558   0.000000
    23  H   -0.004832   0.000002   0.000000   0.395399   0.003034   0.000000
    24  H    0.000965   0.000000   0.000000   0.399294  -0.002460   0.000007
    25  H    0.000758   0.000000   0.000000  -0.002745   0.400606   0.000005
    26  H   -0.003259   0.000001  -0.000006   0.003307   0.398318   0.000008
    27  H    0.000654  -0.000001   0.000007  -0.000699   0.398210   0.000000
    28  H    0.000085   0.000000   0.000000   0.000000   0.000000   0.363582
    29  H   -0.000457  -0.000001   0.000000   0.000002  -0.000001   0.357268
    30  H    0.000137   0.000000   0.000000  -0.000012  -0.000005   0.354481
    31  H    0.004130  -0.002720  -0.003902   0.000003   0.000042   0.000006
    32  H   -0.000911   0.004518  -0.004438   0.000022  -0.001145   0.000003
    33  H   -0.033477  -0.000103  -0.000057  -0.000106  -0.003768  -0.000049
    34  H    0.004442  -0.044812  -0.044173   0.000043  -0.000048   0.000000
    35  H   -0.002263  -0.000326   0.000008  -0.000004  -0.000020  -0.000369
              7          8          9         10         11         12
     1  C   -0.054078   0.337933  -0.004229  -0.058785   0.292406   0.545795
     2  C   -0.056320  -0.000803   0.337083  -0.003072   0.000039  -0.003875
     3  C   -0.065024   0.004179   0.354532  -0.000143  -0.000027   0.000023
     4  C   -0.000294   0.003070   0.000040  -0.000086   0.211424  -0.007402
     5  C   -0.003460  -0.001538   0.000311   0.000214   0.219898   0.001665
     6  C   -0.000128  -0.000787   0.000001  -0.062745  -0.000473   0.001563
     7  C    5.163419   0.324211   0.342142  -0.060967   0.007090  -0.002056
     8  C    0.324211   5.172753  -0.039697   0.220968  -0.095989  -0.074559
     9  C    0.342142  -0.039697   5.056350   0.001051  -0.001863   0.002972
    10  N   -0.060967   0.220968   0.001051   7.455460   0.002809  -0.010028
    11  N    0.007090  -0.095989  -0.001863   0.002809   7.378394  -0.093034
    12  O   -0.002056  -0.074559   0.002972  -0.010028  -0.093034   8.268406
    13  O   -0.000036   0.001647   0.000001  -0.054556   0.000000   0.000000
    14  O   -0.000325  -0.002239  -0.000001  -0.054939  -0.000005   0.000003
    15  S    0.000789  -0.014847   0.000017   0.205001   0.000347  -0.001235
    16  H   -0.003677  -0.000327  -0.037819   0.000490  -0.000002   0.000031
    17  H    0.004314  -0.000146  -0.037626   0.000110   0.000000   0.000034
    18  H   -0.002671   0.001706  -0.032827  -0.002211  -0.000006   0.006364
    19  H   -0.004615  -0.000100  -0.037179   0.000002  -0.000001   0.000000
    20  H   -0.004171  -0.000045  -0.036903   0.000000   0.000000   0.000000
    21  H    0.004818  -0.000087  -0.036140   0.000001   0.000000   0.000000
    22  H    0.000000  -0.000007   0.000031   0.000000  -0.048302   0.000480
    23  H   -0.000021   0.000501  -0.000005  -0.000009  -0.030200   0.010937
    24  H    0.000002  -0.000079  -0.000001   0.000003  -0.046896   0.000370
    25  H    0.000130  -0.000183  -0.000009   0.000003  -0.045898  -0.000023
    26  H   -0.003027   0.002420   0.000081   0.000096  -0.034280   0.000047
    27  H   -0.000348  -0.000087   0.000184  -0.000010  -0.050181  -0.000006
    28  H    0.000002  -0.000104   0.000000   0.001973   0.000000   0.000066
    29  H   -0.000005   0.000392   0.000000   0.000241  -0.000016   0.001649
    30  H    0.000003   0.000441   0.000001  -0.000507   0.000637  -0.000532
    31  H    0.393620  -0.039005  -0.034106  -0.000812  -0.000114  -0.000093
    32  H    0.395329  -0.040794  -0.043239   0.003972   0.000258  -0.000007
    33  H   -0.035232   0.405878   0.003153  -0.038218   0.001815   0.001890
    34  H   -0.046483  -0.004858   0.408392   0.000166   0.000259  -0.000286
    35  H   -0.000863  -0.029636   0.000635   0.299202   0.000412   0.014160
             13         14         15         16         17         18
     1  C   -0.000096  -0.000240  -0.005973   0.000128   0.000017  -0.000609
     2  C   -0.000004  -0.000001  -0.000185   0.386830   0.392476   0.387346
     3  C    0.000000   0.000000   0.000000  -0.002351  -0.005065   0.004307
     4  C    0.000000   0.000000  -0.000021   0.000000   0.000000   0.000003
     5  C    0.000000   0.000003   0.000024   0.000000   0.000000  -0.000002
     6  C   -0.059497  -0.058751   0.292263   0.000000   0.000000  -0.000003
     7  C   -0.000036  -0.000325   0.000789  -0.003677   0.004314  -0.002671
     8  C    0.001647  -0.002239  -0.014847  -0.000327  -0.000146   0.001706
     9  C    0.000001  -0.000001   0.000017  -0.037819  -0.037626  -0.032827
    10  N   -0.054556  -0.054939   0.205001   0.000490   0.000110  -0.002211
    11  N    0.000000  -0.000005   0.000347  -0.000002   0.000000  -0.000006
    12  O    0.000000   0.000003  -0.001235   0.000031   0.000034   0.006364
    13  O    8.325582  -0.035312   0.496193   0.000001   0.000000  -0.000004
    14  O   -0.035312   8.377802   0.466863   0.000000   0.000000   0.000000
    15  S    0.496193   0.466863  13.014497   0.000018  -0.000001  -0.000013
    16  H    0.000001   0.000000   0.000018   0.529170  -0.026453  -0.025594
    17  H    0.000000   0.000000  -0.000001  -0.026453   0.533708  -0.025403
    18  H   -0.000004   0.000000  -0.000013  -0.025594  -0.025403   0.511980
    19  H    0.000000   0.000000   0.000000   0.002226   0.000064  -0.000057
    20  H    0.000000   0.000000   0.000000  -0.000102   0.000027  -0.000095
    21  H    0.000000   0.000000   0.000000   0.000082   0.002465  -0.000052
    22  H    0.000000   0.000000   0.000000   0.000000   0.000000   0.000001
    23  H    0.000000   0.000000  -0.000002   0.000000   0.000000   0.000000
    24  H    0.000000   0.000000   0.000000   0.000000   0.000000   0.000000
    25  H    0.000000   0.000000  -0.000001   0.000000   0.000000   0.000000
    26  H    0.000000  -0.000041   0.000016   0.000000   0.000000   0.000000
    27  H    0.000000   0.000000   0.000000   0.000000   0.000000   0.000001
    28  H    0.000332   0.000259  -0.015255   0.000000   0.000000   0.000000
    29  H    0.000608   0.001609  -0.012964   0.000000   0.000000  -0.000002
    30  H    0.001744   0.001000  -0.013549   0.000000   0.000000   0.000000
    31  H   -0.000013   0.000120   0.000024   0.002598  -0.000061  -0.000025
    32  H    0.000000  -0.000003  -0.000014  -0.000010  -0.000088  -0.000119
    33  H    0.000034   0.010675  -0.001762  -0.000019   0.000003   0.000032
    34  H    0.000000   0.000000   0.000004   0.004245  -0.001867  -0.003447
    35  H    0.000658   0.000981  -0.002591  -0.000226   0.000034   0.003923
             19         20         21         22         23         24
     1  C   -0.000002   0.000004   0.000001   0.001354  -0.004832   0.000965
     2  C   -0.003070   0.004540  -0.003613  -0.000001   0.000002   0.000000
     3  C    0.388056   0.390600   0.393269   0.000000   0.000000   0.000000
     4  C    0.000000   0.000000   0.000000   0.398866   0.395399   0.399294
     5  C    0.000000   0.000000   0.000000  -0.001558   0.003034  -0.002460
     6  C    0.000000   0.000000   0.000000   0.000000   0.000000   0.000007
     7  C   -0.004615  -0.004171   0.004818   0.000000  -0.000021   0.000002
     8  C   -0.000100  -0.000045  -0.000087  -0.000007   0.000501  -0.000079
     9  C   -0.037179  -0.036903  -0.036140   0.000031  -0.000005  -0.000001
    10  N    0.000002   0.000000   0.000001   0.000000  -0.000009   0.000003
    11  N   -0.000001   0.000000   0.000000  -0.048302  -0.030200  -0.046896
    12  O    0.000000   0.000000   0.000000   0.000480   0.010937   0.000370
    13  O    0.000000   0.000000   0.000000   0.000000   0.000000   0.000000
    14  O    0.000000   0.000000   0.000000   0.000000   0.000000   0.000000
    15  S    0.000000   0.000000   0.000000   0.000000  -0.000002   0.000000
    16  H    0.002226  -0.000102   0.000082   0.000000   0.000000   0.000000
    17  H    0.000064   0.000027   0.002465   0.000000   0.000000   0.000000
    18  H   -0.000057  -0.000095  -0.000052   0.000001   0.000000   0.000000
    19  H    0.539112  -0.028083  -0.026495   0.000000   0.000000   0.000000
    20  H   -0.028083   0.544494  -0.025912   0.000000   0.000000   0.000000
    21  H   -0.026495  -0.025912   0.526971   0.000000   0.000000   0.000000
    22  H    0.000000   0.000000   0.000000   0.536406  -0.021272  -0.038909
    23  H    0.000000   0.000000   0.000000  -0.021272   0.426710  -0.021227
    24  H    0.000000   0.000000   0.000000  -0.038909  -0.021227   0.535321
    25  H    0.000000   0.000000   0.000000  -0.001294   0.000013   0.004057
    26  H    0.000000  -0.000001   0.000000  -0.000062  -0.000087  -0.000003
    27  H    0.000000   0.000016   0.000000   0.003592  -0.000075  -0.000754
    28  H    0.000000   0.000000   0.000000   0.000000   0.000000   0.000000
    29  H    0.000000   0.000000   0.000000   0.000000   0.000001   0.000000
    30  H    0.000000   0.000000   0.000000   0.000001   0.000004  -0.000016
    31  H    0.002697   0.000158  -0.000039   0.000000   0.000000   0.000000
    32  H    0.000093   0.002588  -0.000029  -0.000002   0.000001   0.000000
    33  H   -0.000001   0.000000   0.000001  -0.000002  -0.000013   0.000000
    34  H    0.004368  -0.002391  -0.002622   0.000000   0.000017   0.000003
    35  H    0.000000  -0.000001   0.000000   0.000000  -0.000005   0.000000
             25         26         27         28         29         30
     1  C    0.000758  -0.003259   0.000654   0.000085  -0.000457   0.000137
     2  C    0.000000   0.000001  -0.000001   0.000000  -0.000001   0.000000
     3  C    0.000000  -0.000006   0.000007   0.000000   0.000000   0.000000
     4  C   -0.002745   0.003307  -0.000699   0.000000   0.000002  -0.000012
     5  C    0.400606   0.398318   0.398210   0.000000  -0.000001  -0.000005
     6  C    0.000005   0.000008   0.000000   0.363582   0.357268   0.354481
     7  C    0.000130  -0.003027  -0.000348   0.000002  -0.000005   0.000003
     8  C   -0.000183   0.002420  -0.000087  -0.000104   0.000392   0.000441
     9  C   -0.000009   0.000081   0.000184   0.000000   0.000000   0.000001
    10  N    0.000003   0.000096  -0.000010   0.001973   0.000241  -0.000507
    11  N   -0.045898  -0.034280  -0.050181   0.000000  -0.000016   0.000637
    12  O   -0.000023   0.000047  -0.000006   0.000066   0.001649  -0.000532
    13  O    0.000000   0.000000   0.000000   0.000332   0.000608   0.001744
    14  O    0.000000  -0.000041   0.000000   0.000259   0.001609   0.001000
    15  S   -0.000001   0.000016   0.000000  -0.015255  -0.012964  -0.013549
    16  H    0.000000   0.000000   0.000000   0.000000   0.000000   0.000000
    17  H    0.000000   0.000000   0.000000   0.000000   0.000000   0.000000
    18  H    0.000000   0.000000   0.000001   0.000000  -0.000002   0.000000
    19  H    0.000000   0.000000   0.000000   0.000000   0.000000   0.000000
    20  H    0.000000  -0.000001   0.000016   0.000000   0.000000   0.000000
    21  H    0.000000   0.000000   0.000000   0.000000   0.000000   0.000000
    22  H   -0.001294  -0.000062   0.003592   0.000000   0.000000   0.000001
    23  H    0.000013  -0.000087  -0.000075   0.000000   0.000001   0.000004
    24  H    0.004057  -0.000003  -0.000754   0.000000   0.000000  -0.000016
    25  H    0.520230  -0.023057  -0.038767   0.000000   0.000000  -0.000017
    26  H   -0.023057   0.491652  -0.027088   0.000000   0.000000  -0.000010
    27  H   -0.038767  -0.027088   0.534652   0.000000   0.000000   0.000002
    28  H    0.000000   0.000000   0.000000   0.447918  -0.015515  -0.018449
    29  H    0.000000   0.000000   0.000000  -0.015515   0.450174  -0.019715
    30  H   -0.000017  -0.000010   0.000002  -0.018449  -0.019715   0.484336
    31  H    0.000001   0.000067  -0.000019   0.000000   0.000000   0.000000
    32  H    0.000087   0.000089   0.000065   0.000000   0.000000  -0.000001
    33  H    0.000015   0.000009   0.000161  -0.000024  -0.000008   0.000316
    34  H    0.000005  -0.000006  -0.000041   0.000000   0.000000   0.000000
    35  H    0.000000  -0.000003   0.000000   0.000012   0.000289   0.000089
             31         32         33         34         35
     1  C    0.004130  -0.000911  -0.033477   0.004442  -0.002263
     2  C   -0.002720   0.004518  -0.000103  -0.044812  -0.000326
     3  C   -0.003902  -0.004438  -0.000057  -0.044173   0.000008
     4  C    0.000003   0.000022  -0.000106   0.000043  -0.000004
     5  C    0.000042  -0.001145  -0.003768  -0.000048  -0.000020
     6  C    0.000006   0.000003  -0.000049   0.000000  -0.000369
     7  C    0.393620   0.395329  -0.035232  -0.046483  -0.000863
     8  C   -0.039005  -0.040794   0.405878  -0.004858  -0.029636
     9  C   -0.034106  -0.043239   0.003153   0.408392   0.000635
    10  N   -0.000812   0.003972  -0.038218   0.000166   0.299202
    11  N   -0.000114   0.000258   0.001815   0.000259   0.000412
    12  O   -0.000093  -0.000007   0.001890  -0.000286   0.014160
    13  O   -0.000013   0.000000   0.000034   0.000000   0.000658
    14  O    0.000120  -0.000003   0.010675   0.000000   0.000981
    15  S    0.000024  -0.000014  -0.001762   0.000004  -0.002591
    16  H    0.002598  -0.000010  -0.000019   0.004245  -0.000226
    17  H   -0.000061  -0.000088   0.000003  -0.001867   0.000034
    18  H   -0.000025  -0.000119   0.000032  -0.003447   0.003923
    19  H    0.002697   0.000093  -0.000001   0.004368   0.000000
    20  H    0.000158   0.002588   0.000000  -0.002391  -0.000001
    21  H   -0.000039  -0.000029   0.000001  -0.002622   0.000000
    22  H    0.000000  -0.000002  -0.000002   0.000000   0.000000
    23  H    0.000000   0.000001  -0.000013   0.000017  -0.000005
    24  H    0.000000   0.000000   0.000000   0.000003   0.000000
    25  H    0.000001   0.000087   0.000015   0.000005   0.000000
    26  H    0.000067   0.000089   0.000009  -0.000006  -0.000003
    27  H   -0.000019   0.000065   0.000161  -0.000041   0.000000
    28  H    0.000000   0.000000  -0.000024   0.000000   0.000012
    29  H    0.000000   0.000000  -0.000008   0.000000   0.000289
    30  H    0.000000  -0.000001   0.000316   0.000000   0.000089
    31  H    0.494755  -0.023612  -0.001815   0.004096   0.000021
    32  H   -0.023612   0.550971  -0.004669  -0.002153  -0.000102
    33  H   -0.001815  -0.004669   0.447012  -0.000096   0.003179
    34  H    0.004096  -0.002153  -0.000096   0.565230  -0.000028
    35  H    0.000021  -0.000102   0.003179  -0.000028   0.285282
 Mulliken atomic charges:
              1
     1  C    0.801555
     2  C   -0.493693
     3  C   -0.476926
     4  C   -0.299581
     5  C   -0.289667
     6  C   -0.709497
     7  C   -0.292070
     8  C   -0.130187
     9  C   -0.165333
    10  N   -0.844677
    11  N   -0.668497
    12  O   -0.663317
    13  O   -0.677282
    14  O   -0.707458
    15  S    1.592356
    16  H    0.170761
    17  H    0.163459
    18  H    0.177478
    19  H    0.162983
    20  H    0.155277
    21  H    0.167380
    22  H    0.170679
    23  H    0.241128
    24  H    0.170325
    25  H    0.186085
    26  H    0.194821
    27  H    0.180532
    28  H    0.235119
    29  H    0.236450
    30  H    0.209621
    31  H    0.203996
    32  H    0.163341
    33  H    0.245246
    34  H    0.162041
    35  H    0.427551
 Sum of Mulliken atomic charges =   0.00000
 Mulliken charges with hydrogens summed into heavy atoms:
              1
     1  C    0.801555
     2  C    0.018005
     3  C    0.008714
     4  C    0.282551
     5  C    0.271772
     6  C   -0.028307
     7  C    0.075268
     8  C    0.115059
     9  C   -0.003293
    10  N   -0.417126
    11  N   -0.668497
    12  O   -0.663317
    13  O   -0.677282
    14  O   -0.707458
    15  S    1.592356
 Sum of Mulliken charges with hydrogens summed into heavy atoms =   0.00000
 DipInt: DoE/N= T F RetVal/Mat= T F Init=T NMatP=  1 IDeriv=0 Min/MaxMlt=  0  4
 Entering OneElI...
 OneElI was handed    33366499 working-precision words.
 Multipole integrals L=0 to 4 MinM= 0 MaxM= 0.
 Requested accuracy = 0.1000D-12
 PrsmSu:  NPrtUS=   1 ThrOK=F IAlg=1 NPAlg=1 LenDen=           0.
 Prism:   IPart=     0 DynPar=F LinDyn=F Incr=          45.
 PRISM was handed    32997537 working-precision words and  4530 shell-pairs
 IPart=  0 NShTot=        4530 NBatch=          81 AvBLen=        55.9
 PrSmSu:  NxtVal=             46.
 Electronic moments (au):
       -128.00000000         -2.10724283          1.90240607          0.15206645
      -2212.31978041      -1340.84812311       -518.20034582          6.29100144
         -6.43325945          1.58471320      -1755.79806656      -1085.87722517
        -85.01617125       3436.05156408       2003.32717822       -417.41921995
        281.85050374       -239.95277763        378.33576438         61.67944860
     -69138.77430669     -33153.51187322      -5380.35775210      -6638.72637621
       2349.51851091       1047.78084407       -302.90070406       -717.41276058
       -731.70443892     -24562.06709996      -7430.96127928      -5894.48726912
       1010.33463395        402.05703435        173.83267101
 Electronic spatial extent (au):  <R**2>=           4071.3682
 DipInt: DoE/N= F T RetVal/Mat= T F Init=T NMatP=  1 IDeriv=0 Min/MaxMlt=  0  4
 Nuclear    moments (au):
        128.00000000          0.00000000          0.00000000          0.00000000
       2131.47724020       1269.94815060        439.16921565          0.00000000
          0.00000000          0.00000000       1721.13079231       1135.24217772
         82.39738708      -3459.28691005      -1929.39893881        392.93792485
       -292.21993703        244.02917847       -374.09239812        -73.81291550
      61177.49889007      28549.89464172       3585.61012474       6903.85712060
      -2387.43288256      -1170.88000029        277.21320762        635.80133622
        760.12577711      22462.96771585       5778.87072897       4836.12435200
      -1053.82604848       -362.50363820       -213.22179351
 Total      moments (au):
          0.00000000         -2.10724283          1.90240607          0.15206645
        -80.84254021        -70.89997251        -79.03113017          6.29100144
         -6.43325945          1.58471320        -34.66727425         49.36495255
         -2.61878417        -23.23534598         73.92823941        -24.48129510
        -10.36943329          4.07640084          4.24336626        -12.13346689
      -7961.27541662      -4603.61723149      -1794.74762736        265.13074438
        -37.91437165       -123.09915622        -25.68749644        -81.61142436
         28.42133819      -2099.09938412      -1652.09055031      -1058.36291712
        -43.49141453         39.55339615        -39.38912250
 Traceless Quadrup. (au):
         -3.91799258          6.02457512         -2.10658254          6.29100144
         -6.43325945          1.58471320
 Charge=              0.0000 electrons
 Dipole moment (field-independent basis, Debye):
    X=             -5.3561    Y=              4.8354    Z=              0.3865  Tot=              7.2262
 Quadrupole moment (field-independent basis, Debye-Ang):
   XX=           -108.7360   YY=            -95.3629   ZZ=           -106.2996
   XY=              8.4616   XZ=             -8.6530   YZ=              2.1315
 Traceless Quadrupole moment (field-independent basis, Debye-Ang):
   XX=             -5.2698   YY=              8.1033   ZZ=             -2.8334
   XY=              8.4616   XZ=             -8.6530   YZ=              2.1315
 Octapole moment (field-independent basis, Debye-Ang**2):
  XXX=            -24.6748  YYY=             35.1361  ZZZ=             -1.8639  XYY=            -16.5380
  XXY=             52.6193  XXZ=            -17.4248  XZZ=             -7.3806  YZZ=              2.9014
  YYZ=              3.0203  XYZ=             -8.6361
 Hexadecapole moment (field-independent basis, Debye-Ang**3):
 XXXX=          -2998.5979 YYYY=          -1733.9429 ZZZZ=           -675.9880 XXXY=             99.8609
 XXXZ=            -14.2804 YYYX=            -46.3650 YYYZ=             -9.6751 ZZZX=            -30.7388
 ZZZY=             10.7048 XXYY=           -790.6214 XXZZ=           -622.2565 YYZZ=           -398.6302
 XXYZ=            -16.3810 YYXZ=             14.8977 ZZXY=            -14.8358
 N-N= 1.294725239152D+03 E-N=-5.139214633859D+03  KE= 1.081074025939D+03
 Entering OneElI...
 OneElI was handed    33220633 working-precision words.
 Calculate electrostatic properties
    NBasis =   269  MinDer = 0  MaxDer = 0
    NGrid  =    35  NMatD  =   1
 Requested accuracy = 0.1000D-12
 PrsmSu:  NPrtUS=   2 ThrOK=T IAlg=1 NPAlg=1 LenDen=           0.
 Prism:   IPart=     0 DynPar=F LinDyn=F Incr=         512.
 PRISM was handed    16384686 working-precision words and  4095 shell-pairs
 PRISM was handed    16384686 working-precision words and  4095 shell-pairs
 IPart=  1 NShTot=       71260 NBatch=        2036 AvBLen=        35.0
 IPart=  0 NShTot=       72065 NBatch=        2060 AvBLen=        35.0
 PrSmSu:  NxtVal=           1025.
 --------------------------------------------------------
       Center         ----      EFG at Nuclei      ----
                      3XX-RR        3YY-RR        3ZZ-RR
 --------------------------------------------------------
     1   Atom       -0.356702      0.017480      0.339223
     2   Atom        0.011464     -0.000663     -0.010801
     3   Atom       -0.004787      0.000183      0.004604
     4   Atom        0.053175     -0.084097      0.030921
     5   Atom        0.115104      0.130085     -0.245190
     6   Atom        0.101214     -0.152635      0.051421
     7   Atom       -0.002343     -0.008881      0.011224
     8   Atom       -0.062458     -0.017744      0.080202
     9   Atom       -0.012128      0.015571     -0.003443
    10   Atom       -0.765957      0.822275     -0.056318
    11   Atom        0.586148     -0.085948     -0.500201
    12   Atom       -0.103529      1.009155     -0.905626
    13   Atom        0.004503     -0.225416      0.220913
    14   Atom        0.713051      0.785263     -1.498314
    15   Atom       -0.477668      0.174230      0.303438
    16   Atom        0.004169     -0.094749      0.090581
    17   Atom       -0.076885      0.079128     -0.002243
    18   Atom        0.006123     -0.005000     -0.001123
    19   Atom        0.075870     -0.156380      0.080510
    20   Atom        0.056630      0.032312     -0.088942
    21   Atom       -0.068488      0.117420     -0.048932
    22   Atom       -0.283582      0.143241      0.140341
    23   Atom        0.124684      0.120848     -0.245532
    24   Atom        0.090972     -0.211559      0.120586
    25   Atom        0.129103     -0.234431      0.105329
    26   Atom        0.034443     -0.020048     -0.014395
    27   Atom       -0.262611      0.142938      0.119673
    28   Atom       -0.260996      0.118362      0.142634
    29   Atom        0.138928      0.131520     -0.270448
    30   Atom       -0.004707     -0.077904      0.082611
    31   Atom        0.061037     -0.128960      0.067922
    32   Atom        0.022668      0.048580     -0.071248
    33   Atom        0.079510      0.076591     -0.156101
    34   Atom        0.057075     -0.136525      0.079450
    35   Atom        0.132558      0.213318     -0.345875
 --------------------------------------------------------
                        XY            XZ            YZ
 --------------------------------------------------------
     1   Atom       -0.335154     -0.057577     -0.129554
     2   Atom        0.011192      0.008973     -0.029018
     3   Atom       -0.011844      0.013673      0.005037
     4   Atom        0.098159     -0.125066      0.208096
     5   Atom        0.010276      0.084593     -0.072426
     6   Atom       -0.054574      0.039855      0.144077
     7   Atom       -0.079689      0.052190      0.030815
     8   Atom        0.187248      0.125229     -0.025637
     9   Atom       -0.023009     -0.018658     -0.013219
    10   Atom       -0.068879     -0.022979     -0.624114
    11   Atom        0.687055      0.129646      0.055685
    12   Atom       -0.900329      0.292471     -0.411925
    13   Atom        0.968242      0.565834     -0.828455
    14   Atom        0.036976     -0.136927     -0.517081
    15   Atom       -0.260415     -0.220154      0.104808
    16   Atom        0.190380     -0.085227      0.110878
    17   Atom       -0.125028     -0.179091     -0.106914
    18   Atom       -0.149828      0.143130      0.147062
    19   Atom        0.141432     -0.066114      0.146542
    20   Atom        0.097471      0.149151     -0.165669
    21   Atom       -0.087401     -0.203251     -0.078592
    22   Atom        0.016502      0.035028      0.009821
    23   Atom        0.028853      0.096314     -0.087510
    24   Atom       -0.141195     -0.043694     -0.081106
    25   Atom       -0.096640     -0.021102     -0.100040
    26   Atom        0.153497     -0.131339      0.157639
    27   Atom       -0.056999      0.073076      0.007830
    28   Atom       -0.098805     -0.060783     -0.005346
    29   Atom       -0.017432     -0.085244     -0.050194
    30   Atom        0.182009      0.112146     -0.119193
    31   Atom        0.141711     -0.082723      0.147608
    32   Atom        0.097423      0.162704     -0.147037
    33   Atom       -0.053397     -0.121791     -0.144157
    34   Atom        0.149488     -0.074969      0.130934
    35   Atom       -0.012292     -0.063610     -0.080499
 --------------------------------------------------------


 ---------------------------------------------------------------------------------
              Nuclear Quadrupole in Principal Axis System
 ---------------------------------------------------------------------------------

       Atom             a.u.   MegaHertz   Gauss  10(-4) cm-1        Axes

              Baa    -0.5682   -76.250   -27.208   -25.434  0.8485  0.5137  0.1272
     1 C(13)  Bbb     0.1765    23.688     8.453     7.902 -0.5160  0.7497  0.4144
              Bcc     0.3917    52.562    18.755    17.533  0.1175 -0.4172  0.9012
 
              Baa    -0.0391    -5.249    -1.873    -1.751 -0.2686  0.6289  0.7297
     2 C(13)  Bbb     0.0146     1.957     0.698     0.653  0.9232 -0.0482  0.3814
              Bcc     0.0245     3.291     1.174     1.098  0.2750  0.7760 -0.5676
 
              Baa    -0.0218    -2.926    -1.044    -0.976  0.7267  0.4995 -0.4716
     3 C(13)  Bbb     0.0066     0.890     0.318     0.297 -0.2248  0.8216  0.5239
              Bcc     0.0152     2.035     0.726     0.679  0.6491 -0.2747  0.7093
 
              Baa    -0.3085   -41.400   -14.773   -13.810 -0.3942  0.7116 -0.5815
     4 C(13)  Bbb     0.1031    13.830     4.935     4.613  0.8409  0.5346  0.0841
              Bcc     0.2055    27.570     9.838     9.196 -0.3707  0.4559  0.8092
 
              Baa    -0.2771   -37.188   -13.269   -12.404 -0.2119  0.1763  0.9612
     5 C(13)  Bbb     0.1313    17.617     6.286     5.877  0.8981  0.4231  0.1204
              Bcc     0.1458    19.570     6.983     6.528 -0.3855  0.8888 -0.2480
 
              Baa    -0.2402   -32.236   -11.503   -10.753  0.1921  0.8692 -0.4556
     6 C(13)  Bbb     0.1084    14.548     5.191     4.853  0.8491 -0.3800 -0.3670
              Bcc     0.1318    17.688     6.311     5.900  0.4921  0.3164  0.8110
 
              Baa    -0.1131   -15.176    -5.415    -5.062  0.6520  0.6254 -0.4287
     7 C(13)  Bbb     0.0334     4.480     1.599     1.494  0.0436  0.5336  0.8446
              Bcc     0.0797    10.696     3.817     3.568  0.7570 -0.5694  0.3207
 
              Baa    -0.2652   -35.586   -12.698   -11.870  0.7415 -0.5935 -0.3129
     8 C(13)  Bbb     0.0695     9.324     3.327     3.110 -0.1941 -0.6362  0.7467
              Bcc     0.1957    26.261     9.371     8.760  0.6423  0.4929  0.5870
 
              Baa    -0.0395    -5.302    -1.892    -1.769  0.7268  0.4318  0.5342
     9 C(13)  Bbb     0.0107     1.435     0.512     0.479 -0.5175 -0.1671  0.8392
              Bcc     0.0288     3.867     1.380     1.290 -0.4516  0.8864 -0.1020
 
              Baa    -0.7742   -29.859   -10.654    -9.960  0.9910  0.0836  0.1044
    10 N(14)  Bbb    -0.3733   -14.399    -5.138    -4.803 -0.1311  0.4528  0.8819
              Bcc     1.1475    44.258    15.792    14.763 -0.0264  0.8877 -0.4597
 
              Baa    -0.5352   -20.640    -7.365    -6.885 -0.4348  0.5796  0.6892
    11 N(14)  Bbb    -0.4925   -18.995    -6.778    -6.336  0.3099 -0.6223  0.7188
              Bcc     1.0277    39.635    14.143    13.221  0.8455  0.5262  0.0909
 
              Baa    -1.0129    73.295    26.153    24.449 -0.2085  0.1052  0.9723
    12 O(17)  Bbb    -0.5985    43.306    15.453    14.445  0.8511  0.5093  0.1274
              Bcc     1.6114  -116.601   -41.606   -38.894 -0.4818  0.8541 -0.1958
 
              Baa    -1.6241   117.522    41.935    39.201 -0.5657  0.6734  0.4759
    13 O(17)  Bbb     0.6879   -49.774   -17.761   -16.603  0.6727  0.0431  0.7387
              Bcc     0.9363   -67.748   -24.174   -22.598  0.4770  0.7380 -0.4774
 
              Baa    -1.6168   116.988    41.744    39.023  0.0541  0.2093  0.9763
    14 O(17)  Bbb     0.6986   -50.550   -18.038   -16.862  0.9489 -0.3152  0.0150
              Bcc     0.9182   -66.438   -23.707   -22.161  0.3109  0.9257 -0.2157
 
              Baa    -0.6033   -24.733    -8.825    -8.250  0.9377  0.2879  0.1944
    15 S(33)  Bbb     0.1295     5.309     1.895     1.771 -0.1127  0.7815 -0.6136
              Bcc     0.4738    19.424     6.931     6.479 -0.3286  0.5535  0.7653
 
              Baa    -0.2930  -156.320   -55.779   -52.143 -0.5745  0.7434 -0.3425
    16 H(1)   Bbb     0.1416    75.526    26.950    25.193 -0.2408  0.2465  0.9388
              Bcc     0.1514    80.793    28.829    26.950  0.7823  0.6218  0.0374
 
              Baa    -0.2948  -157.309   -56.132   -52.472  0.7079  0.4026  0.5804
    17 H(1)   Bbb     0.1419    75.721    27.019    25.258  0.7038 -0.3323 -0.6279
              Bcc     0.1529    81.587    29.112    27.215 -0.0599  0.8529 -0.5186
 
              Baa    -0.2934  -156.564   -55.866   -52.224  0.5689  0.5884 -0.5746
    18 H(1)   Bbb     0.1429    76.218    27.197    25.424  0.3177  0.4872  0.8135
              Bcc     0.1506    80.345    28.669    26.800  0.7586 -0.6453  0.0902
 
              Baa    -0.2925  -156.074   -55.691   -52.061 -0.3902  0.8313 -0.3957
    19 H(1)   Bbb     0.1419    75.693    27.009    25.249  0.9121  0.2903 -0.2894
              Bcc     0.1507    80.381    28.682    26.812  0.1257  0.4739  0.8716
 
              Baa    -0.2950  -157.374   -56.155   -52.494 -0.4519  0.5064  0.7344
    20 H(1)   Bbb     0.1425    76.023    27.127    25.359  0.6680  0.7377 -0.0976
              Bcc     0.1525    81.350    29.028    27.136  0.5912 -0.4465  0.6717
 
              Baa    -0.2956  -157.728   -56.281   -52.612  0.6977  0.2736  0.6620
    21 H(1)   Bbb     0.1433    76.483    27.291    25.512 -0.5515 -0.3847  0.7402
              Bcc     0.1523    81.245    28.990    27.101 -0.4572  0.8816  0.1175
 
              Baa    -0.2870  -153.143   -54.645   -51.083  0.9961 -0.0364 -0.0808
    22 H(1)   Bbb     0.1324    70.631    25.203    23.560  0.0327 -0.6971  0.7162
              Bcc     0.1546    82.512    29.443    27.523  0.0824  0.7160  0.6932
 
              Baa    -0.2897  -154.544   -55.145   -51.550 -0.2354  0.2184  0.9470
    23 H(1)   Bbb     0.1370    73.086    26.079    24.379 -0.4714  0.8265 -0.3078
              Bcc     0.1527    81.458    29.066    27.172  0.8500  0.5188  0.0916
 
              Baa    -0.2877  -153.517   -54.779   -51.208  0.3629  0.9058  0.2188
    24 H(1)   Bbb     0.1329    70.890    25.295    23.646  0.5039 -0.3883  0.7716
              Bcc     0.1549    82.627    29.483    27.561  0.7838 -0.1698 -0.5974
 
              Baa    -0.2853  -152.199   -54.308   -50.768  0.2319  0.9392  0.2531
    25 H(1)   Bbb     0.1315    70.140    25.028    23.396 -0.2192 -0.2030  0.9543
              Bcc     0.1538    82.058    29.280    27.372  0.9477 -0.2768  0.1588
 
              Baa    -0.2974  -158.699   -56.628   -52.936 -0.5195  0.6210 -0.5869
    26 H(1)   Bbb     0.1343    71.675    25.576    23.908 -0.3899  0.4389  0.8095
              Bcc     0.1631    87.023    31.052    29.028  0.7603  0.6494  0.0141
 
              Baa    -0.2838  -151.446   -54.040   -50.517  0.9747  0.1335 -0.1791
    27 H(1)   Bbb     0.1328    70.846    25.279    23.632  0.1598  0.1437  0.9766
              Bcc     0.1511    80.600    28.760    26.885 -0.1561  0.9806 -0.1188
 
              Baa    -0.2935  -156.614   -55.884   -52.241  0.9628  0.2327  0.1370
    28 H(1)   Bbb     0.1367    72.921    26.020    24.324 -0.1259  0.8357 -0.5345
              Bcc     0.1569    83.693    29.864    27.917 -0.2389  0.4974  0.8340
 
              Baa    -0.2940  -156.866   -55.974   -52.325  0.1965  0.1228  0.9728
    29 H(1)   Bbb     0.1355    72.296    25.797    24.115  0.3025  0.9361 -0.1793
              Bcc     0.1585    84.570    30.177    28.209  0.9327 -0.3295 -0.1468
 
              Baa    -0.2972  -158.570   -56.582   -52.893 -0.5898  0.7043  0.3952
    30 H(1)   Bbb     0.1374    73.334    26.167    24.461  0.4974  0.7023 -0.5093
              Bcc     0.1598    85.236    30.414    28.432  0.6362  0.1038  0.7645
 
              Baa    -0.2855  -152.352   -54.363   -50.819 -0.4278  0.7941 -0.4317
    31 H(1)   Bbb     0.1359    72.502    25.870    24.184  0.8079  0.5501  0.2113
              Bcc     0.1497    79.850    28.492    26.635 -0.4053  0.2584  0.8769
 
              Baa    -0.2863  -152.747   -54.504   -50.951 -0.5229  0.4656  0.7140
    32 H(1)   Bbb     0.1336    71.290    25.438    23.780  0.7245  0.6841  0.0844
              Bcc     0.1527    81.457    29.066    27.171  0.4491 -0.5615  0.6950
 
              Baa    -0.2749  -146.653   -52.329   -48.918  0.3512  0.4005  0.8463
    33 H(1)   Bbb     0.1284    68.504    24.444    22.851  0.9106 -0.3565 -0.2092
              Bcc     0.1465    78.149    27.885    26.068  0.2179  0.8441 -0.4899
 
              Baa    -0.2810  -149.904   -53.489   -50.003 -0.4434  0.8089 -0.3861
    34 H(1)   Bbb     0.1368    72.974    26.039    24.341  0.6909  0.5828  0.4278
              Bcc     0.1442    76.930    27.451    25.661 -0.5711  0.0771  0.8173
 
              Baa    -0.3656  -195.086   -69.612   -65.074  0.1288  0.1393  0.9818
    35 H(1)   Bbb     0.1408    75.143    26.813    25.065  0.9909  0.0205 -0.1329
              Bcc     0.2248   119.944    42.799    40.009 -0.0386  0.9900 -0.1354
 

 ---------------------------------------------------------------------------------

 No NMR shielding tensors so no spin-rotation constants.
 Leave Link  601 at Sat Feb 17 21:03:59 2018, MaxMem=   33554432 cpu:       0.9
 Merz-Kollman atomic radii used.
 Read replacement radii for each type of atom:
 Atom Element Radius
    1     6    1.50
    2     6    1.50
    3     6    1.50
    4     6    1.50
    5     6    1.50
    6     6    1.50
    7     6    1.50
    8     6    1.50
    9     6    1.50
   10     7    1.50
   11     7    1.50
   12     8    1.40
   13     8    1.40
   14     8    1.40
   15    16    1.75
   16     1    1.20
   17     1    1.20
   18     1    1.20
   19     1    1.20
   20     1    1.20
   21     1    1.20
   22     1    1.20
   23     1    1.20
   24     1    1.20
   25     1    1.20
   26     1    1.20
   27     1    1.20
   28     1    1.20
   29     1    1.20
   30     1    1.20
   31     1    1.20
   32     1    1.20
   33     1    1.20
   34     1    1.20
   35     1    1.20
 Generate VDW surfaces: Layer= 4 Dens= 1 Start= 1.400 Inc= 0.200

 **********************************************************************

            Electrostatic Properties Using The SCF Density

 **********************************************************************

       Atomic Center    1 is at  -0.626730  1.010564 -0.429840
       Atomic Center    2 is at  -1.652063 -2.320174 -1.291098
       Atomic Center    3 is at  -3.389916 -2.384813  0.541045
       Atomic Center    4 is at  -1.873685  3.064792 -0.826043
       Atomic Center    5 is at  -1.635765  2.282547  1.492314
       Atomic Center    6 is at   2.826912  1.168525 -0.674508
       Atomic Center    7 is at  -1.299700 -1.060980  0.940289
       Atomic Center    8 is at  -0.144494 -0.110628  0.520413
       Atomic Center    9 is at  -2.298637 -1.538724 -0.135858
       Atomic Center   10 is at   0.947566 -0.857882 -0.110844
       Atomic Center   11 is at  -1.325813  2.066008  0.086475
       Atomic Center   12 is at  -0.387661  0.910558 -1.635814
       Atomic Center   13 is at   3.373605 -1.404395 -0.469872
       Atomic Center   14 is at   2.635181 -0.126901  1.625772
       Atomic Center   15 is at   2.541401 -0.398409  0.187726
       Atomic Center   16 is at  -1.019052 -3.134038 -0.917709
       Atomic Center   17 is at  -2.425304 -2.763070 -1.929894
       Atomic Center   18 is at  -1.045841 -1.668829 -1.927542
       Atomic Center   19 is at  -2.964362 -3.298455  0.975543
       Atomic Center   20 is at  -3.888699 -1.833767  1.347748
       Atomic Center   21 is at  -4.155726 -2.686998 -0.182316
       Atomic Center   22 is at  -2.967059  3.102002 -0.737579
       Atomic Center   23 is at  -1.597692  2.794469 -1.843703
       Atomic Center   24 is at  -1.473376  4.057870 -0.586332
       Atomic Center   25 is at  -1.378987  3.312548  1.768420
       Atomic Center   26 is at  -1.070826  1.612156  2.137262
       Atomic Center   27 is at  -2.706747  2.135970  1.687818
       Atomic Center   28 is at   3.879230  1.420931 -0.524879
       Atomic Center   29 is at   2.609280  1.038315 -1.735602
       Atomic Center   30 is at   2.188575  1.942803 -0.245722
       Atomic Center   31 is at  -0.823010 -1.929026  1.411448
       Atomic Center   32 is at  -1.875326 -0.556236  1.727496
       Atomic Center   33 is at   0.279323  0.302484  1.439081
       Atomic Center   34 is at  -2.787127 -0.651292 -0.565636
       Atomic Center   35 is at   0.803504 -0.980918 -1.111906
      ESP Fit Center   36 is at  -2.843028 -0.945728 -2.341098
      ESP Fit Center   37 is at  -0.122115 -3.303413 -2.341098
      ESP Fit Center   38 is at  -1.127063 -3.229501 -3.109751
      ESP Fit Center   39 is at  -1.652063 -2.320174 -3.391098
      ESP Fit Center   40 is at  -2.339916 -2.384813  2.359698
      ESP Fit Center   41 is at  -4.580880 -3.759259  1.591045
      ESP Fit Center   42 is at  -4.580880 -1.010366 -0.508955
      ESP Fit Center   43 is at  -2.634420 -4.039118 -0.508955
      ESP Fit Center   44 is at  -0.343736  4.048031 -1.876043
      ESP Fit Center   45 is at  -3.064649  4.439239 -1.876043
      ESP Fit Center   46 is at  -3.064649  1.690346 -1.876043
      ESP Fit Center   47 is at  -1.635765  2.282547  3.592314
      ESP Fit Center   48 is at  -2.160765  3.191874  3.310967
      ESP Fit Center   49 is at   0.464235  2.282547  1.492314
      ESP Fit Center   50 is at   3.351912  2.077852  1.144145
      ESP Fit Center   51 is at   3.582408  2.822830  0.375492
      ESP Fit Center   52 is at   3.582408  2.822830 -1.724508
      ESP Fit Center   53 is at   2.568091  2.968667 -1.724508
      ESP Fit Center   54 is at   1.635948  2.542971 -1.724508
      ESP Fit Center   55 is at   4.356861  0.185287 -1.724508
      ESP Fit Center   56 is at  -0.249700 -1.060980  2.758943
      ESP Fit Center   57 is at  -3.489602 -0.164278  0.914142
      ESP Fit Center   58 is at   0.688744 -2.658024  0.939156
      ESP Fit Center   59 is at   1.200693 -2.942571 -0.110844
      ESP Fit Center   60 is at   0.688744 -2.658024 -1.160844
      ESP Fit Center   61 is at   1.703062 -2.512188 -1.160844
      ESP Fit Center   62 is at   0.492841  2.066008  1.136475
      ESP Fit Center   63 is at   0.533645  3.041927  0.086475
      ESP Fit Center   64 is at  -3.364791  1.563445  0.086475
      ESP Fit Center   65 is at   0.592339  2.607968 -1.635814
      ESP Fit Center   66 is at  -2.347661  0.910558 -1.635814
      ESP Fit Center   67 is at   0.985573  1.908270 -2.615814
      ESP Fit Center   68 is at   0.136868  2.524891 -2.615814
      ESP Fit Center   69 is at  -2.085071  0.910558 -2.615814
      ESP Fit Center   70 is at  -1.760894 -0.087154 -2.615814
      ESP Fit Center   71 is at   0.985573 -0.087154 -2.615814
      ESP Fit Center   72 is at   0.592339  0.910558 -3.333224
      ESP Fit Center   73 is at   0.102339  1.759263 -3.333224
      ESP Fit Center   74 is at  -0.877661  1.759263 -3.333224
      ESP Fit Center   75 is at  -1.367661  0.910558 -3.333224
      ESP Fit Center   76 is at  -0.877661  0.061853 -3.333224
      ESP Fit Center   77 is at   0.102339  0.061853 -3.333224
      ESP Fit Center   78 is at  -0.387661  0.910558 -3.595814
      ESP Fit Center   79 is at   3.863605 -2.253099  1.227538
      ESP Fit Center   80 is at   5.071015 -1.404395  0.510128
      ESP Fit Center   81 is at   2.849076 -3.018727  0.510128
      ESP Fit Center   82 is at   3.898133 -3.018727  0.510128
      ESP Fit Center   83 is at   4.746838 -2.402107  0.510128
      ESP Fit Center   84 is at   5.333605 -1.404395 -0.469872
      ESP Fit Center   85 is at   5.071015 -0.424395 -0.469872
      ESP Fit Center   86 is at   2.393605 -3.101804 -0.469872
      ESP Fit Center   87 is at   3.373605 -3.364395 -0.469872
      ESP Fit Center   88 is at   4.353605 -3.101804 -0.469872
      ESP Fit Center   89 is at   5.071015 -2.384395 -0.469872
      ESP Fit Center   90 is at   5.071015 -1.404395 -1.449872
      ESP Fit Center   91 is at   4.746838 -0.406682 -1.449872
      ESP Fit Center   92 is at   2.000371 -2.402107 -1.449872
      ESP Fit Center   93 is at   2.849076 -3.018727 -1.449872
      ESP Fit Center   94 is at   3.898133 -3.018727 -1.449872
      ESP Fit Center   95 is at   4.746838 -2.402107 -1.449872
      ESP Fit Center   96 is at   4.353605 -1.404395 -2.167282
      ESP Fit Center   97 is at   3.863605 -0.555690 -2.167282
      ESP Fit Center   98 is at   2.393605 -1.404395 -2.167282
      ESP Fit Center   99 is at   2.883605 -2.253099 -2.167282
      ESP Fit Center  100 is at   3.863605 -2.253099 -2.167282
      ESP Fit Center  101 is at   3.373605 -1.404395 -2.429872
      ESP Fit Center  102 is at   2.635181 -0.126901  3.585772
      ESP Fit Center  103 is at   3.615181 -0.126901  3.323182
      ESP Fit Center  104 is at   3.125181  0.721804  3.323182
      ESP Fit Center  105 is at   2.145181  0.721804  3.323182
      ESP Fit Center  106 is at   1.655181 -0.126901  3.323182
      ESP Fit Center  107 is at   2.145181 -0.975606  3.323182
      ESP Fit Center  108 is at   3.125181 -0.975606  3.323182
      ESP Fit Center  109 is at   4.332590 -0.126901  2.605772
      ESP Fit Center  110 is at   4.008414  0.870811  2.605772
      ESP Fit Center  111 is at   3.159709  1.487431  2.605772
      ESP Fit Center  112 is at   2.110652  1.487431  2.605772
      ESP Fit Center  113 is at   1.261947 -1.124614  2.605772
      ESP Fit Center  114 is at   2.110652 -1.741234  2.605772
      ESP Fit Center  115 is at   3.159709 -1.741234  2.605772
      ESP Fit Center  116 is at   4.008414 -1.124614  2.605772
      ESP Fit Center  117 is at   4.595181 -0.126901  1.625772
      ESP Fit Center  118 is at   4.332590  0.853099  1.625772
      ESP Fit Center  119 is at   3.615181  1.570509  1.625772
      ESP Fit Center  120 is at   2.635181  1.833099  1.625772
      ESP Fit Center  121 is at   1.655181  1.570509  1.625772
      ESP Fit Center  122 is at   1.287024 -1.846038  1.715276
      ESP Fit Center  123 is at   2.268799 -2.294399  1.715276
      ESP Fit Center  124 is at   3.337123 -2.140797  1.715276
      ESP Fit Center  125 is at   4.152812 -1.434000  1.715276
      ESP Fit Center  126 is at   4.929975 -0.398409  0.732902
      ESP Fit Center  127 is at   4.693432  0.637954  0.732902
      ESP Fit Center  128 is at   2.009894 -2.727096  0.732902
      ESP Fit Center  129 is at  -0.031573 -3.134038  0.441439
      ESP Fit Center  130 is at  -0.713905 -4.073186  0.441439
      ESP Fit Center  131 is at   0.578723 -3.134038 -0.398561
      ESP Fit Center  132 is at  -1.817940 -4.517751 -0.398561
      ESP Fit Center  133 is at  -0.741602 -4.707539 -0.398561
      ESP Fit Center  134 is at   0.204914 -4.161068 -0.398561
      ESP Fit Center  135 is at   0.578723 -3.134038 -1.436858
      ESP Fit Center  136 is at  -1.817940 -4.517751 -1.436858
      ESP Fit Center  137 is at  -0.741602 -4.707539 -1.436858
      ESP Fit Center  138 is at   0.204914 -4.161068 -1.436858
      ESP Fit Center  139 is at  -0.713905 -4.073186 -2.276858
      ESP Fit Center  140 is at  -3.224191 -4.146784 -1.410745
      ESP Fit Center  141 is at  -3.224191 -1.379357 -2.449042
      ESP Fit Center  142 is at  -3.926721 -2.216599 -2.449042
      ESP Fit Center  143 is at  -3.926721 -3.309542 -2.449042
      ESP Fit Center  144 is at  -3.224191 -4.146784 -2.449042
      ESP Fit Center  145 is at  -2.147853 -4.336572 -2.449042
      ESP Fit Center  146 is at  -2.120156 -1.823922 -3.289042
      ESP Fit Center  147 is at  -3.224191 -2.182645 -3.289042
      ESP Fit Center  148 is at  -3.224191 -3.343496 -3.289042
      ESP Fit Center  149 is at  -2.120156 -3.702219 -3.289042
      ESP Fit Center  150 is at  -2.425304 -2.763070 -3.609894
      ESP Fit Center  151 is at  -1.844728 -0.285115 -2.446691
      ESP Fit Center  152 is at   0.178126 -2.695859 -2.446691
      ESP Fit Center  153 is at  -0.058362 -1.668829 -3.286691
      ESP Fit Center  154 is at  -0.740693 -0.729680 -3.286691
      ESP Fit Center  155 is at  -1.844728 -1.088403 -3.286691
      ESP Fit Center  156 is at  -0.740693 -2.607977 -3.286691
      ESP Fit Center  157 is at  -1.045841 -1.668829 -3.607542
      ESP Fit Center  158 is at  -2.964362 -3.298455  2.655543
      ESP Fit Center  159 is at  -1.976883 -3.298455  2.334692
      ESP Fit Center  160 is at  -3.763250 -3.878881  2.334692
      ESP Fit Center  161 is at  -2.659214 -4.237603  2.334692
      ESP Fit Center  162 is at  -3.763250 -4.682169  1.494692
      ESP Fit Center  163 is at  -2.686911 -4.871956  1.494692
      ESP Fit Center  164 is at  -1.740395 -4.325485  1.494692
      ESP Fit Center  165 is at  -3.763250 -4.682169  0.456394
      ESP Fit Center  166 is at  -2.686911 -4.871956  0.456394
      ESP Fit Center  167 is at  -1.740395 -4.325485  0.456394
      ESP Fit Center  168 is at  -2.659214 -4.237603 -0.383606
      ESP Fit Center  169 is at  -3.888699 -1.833767  3.027748
      ESP Fit Center  170 is at  -2.901220 -1.833767  2.706896
      ESP Fit Center  171 is at  -3.583551 -0.894619  2.706896
      ESP Fit Center  172 is at  -4.687586 -1.253342  2.706896
      ESP Fit Center  173 is at  -4.687586 -2.414193  2.706896
      ESP Fit Center  174 is at  -3.583551 -2.772916  2.706896
      ESP Fit Center  175 is at  -3.611248 -0.260266  1.866896
      ESP Fit Center  176 is at  -4.687586 -0.450054  1.866896
      ESP Fit Center  177 is at  -5.390116 -1.287296  1.866896
      ESP Fit Center  178 is at  -5.390116 -2.380239  1.866896
      ESP Fit Center  179 is at  -4.687586 -0.450054  0.828599
      ESP Fit Center  180 is at  -5.390116 -1.287296  0.828599
      ESP Fit Center  181 is at  -5.657144 -2.140527  0.336833
      ESP Fit Center  182 is at  -5.657144 -3.233469  0.336833
      ESP Fit Center  183 is at  -4.954614 -4.070712  0.336833
      ESP Fit Center  184 is at  -4.954614 -1.303284 -0.701464
      ESP Fit Center  185 is at  -5.657144 -2.140527 -0.701464
      ESP Fit Center  186 is at  -5.657144 -3.233469 -0.701464
      ESP Fit Center  187 is at  -4.954614 -4.070712 -0.701464
      ESP Fit Center  188 is at  -3.878276 -4.260499 -0.701464
      ESP Fit Center  189 is at  -3.850578 -1.747849 -1.541464
      ESP Fit Center  190 is at  -4.954614 -2.106572 -1.541464
      ESP Fit Center  191 is at  -4.954614 -3.267424 -1.541464
      ESP Fit Center  192 is at  -3.850578 -3.626146 -1.541464
      ESP Fit Center  193 is at  -4.155726 -2.686998 -1.862316
      ESP Fit Center  194 is at  -3.765947  3.682428  0.621569
      ESP Fit Center  195 is at  -3.765947  4.485716 -0.218431
      ESP Fit Center  196 is at  -4.468477  3.648474 -0.218431
[...]
  686 Fit       0.004687
  687 Fit       0.003383
  688 Fit       0.003697
  689 Fit       0.002580
  690 Fit       0.007540
  691 Fit       0.002129
  692 Fit       0.010799
  693 Fit       0.002101
  694 Fit       0.025734
  695 Fit       0.021628
  696 Fit       0.010684
  697 Fit       0.017468
  698 Fit       0.008132
  699 Fit       0.012777
  700 Fit       0.014644
  701 Fit       0.014908
  702 Fit       0.013894
  703 Fit       0.010483
  704 Fit       0.022717
  705 Fit       0.021936
  706 Fit       0.022960
  707 Fit       0.023484
  708 Fit       0.023681
  709 Fit       0.024164
  710 Fit       0.022947
  711 Fit       0.024993
  712 Fit       0.007262
  713 Fit       0.015652
  714 Fit       0.014501
  715 Fit       0.014709
  716 Fit       0.005711
  717 Fit       0.011260
  718 Fit       0.012663
  719 Fit       0.011534
  720 Fit      -0.005934
  721 Fit       0.005255
  722 Fit       0.008271
  723 Fit      -0.030077
  724 Fit      -0.022804
  725 Fit      -0.025938
  726 Fit       0.025295
  727 Fit       0.021578
  728 Fit      -0.000409
  729 Fit      -0.001745
  730 Fit      -0.008393
  731 Fit      -0.011330
  732 Fit      -0.015366
  733 Fit      -0.003804
  734 Fit      -0.017494
  735 Fit      -0.018377
  736 Fit      -0.016880
  737 Fit      -0.019845
  738 Fit      -0.020470
  739 Fit      -0.018372
  740 Fit      -0.021579
  741 Fit      -0.046516
  742 Fit      -0.046143
  743 Fit      -0.037943
  744 Fit      -0.042345
  745 Fit      -0.045252
  746 Fit      -0.045697
  747 Fit      -0.043848
  748 Fit      -0.036088
  749 Fit      -0.022692
  750 Fit      -0.033368
  751 Fit      -0.040171
  752 Fit      -0.042928
  753 Fit      -0.043130
  754 Fit      -0.041404
  755 Fit      -0.033764
  756 Fit      -0.020808
  757 Fit      -0.025848
  758 Fit      -0.036785
  759 Fit      -0.039567
  760 Fit      -0.038701
  761 Fit      -0.029900
  762 Fit      -0.014108
  763 Fit      -0.027028
  764 Fit      -0.033938
  765 Fit      -0.022550
  766 Fit      -0.032042
  767 Fit      -0.036907
  768 Fit      -0.030621
  769 Fit      -0.023212
  770 Fit      -0.022697
  771 Fit      -0.032330
  772 Fit      -0.038497
  773 Fit      -0.038351
  774 Fit      -0.032371
  775 Fit      -0.025804
  776 Fit      -0.017621
  777 Fit      -0.006258
  778 Fit      -0.026347
  779 Fit      -0.036925
  780 Fit      -0.042444
  781 Fit      -0.042573
  782 Fit      -0.034633
  783 Fit      -0.026188
  784 Fit      -0.019270
  785 Fit      -0.012346
  786 Fit      -0.002269
  787 Fit      -0.042949
  788 Fit      -0.032076
  789 Fit      -0.022930
  790 Fit      -0.025860
  791 Fit      -0.034043
  792 Fit      -0.042334
  793 Fit      -0.045522
  794 Fit      -0.041034
  795 Fit      -0.024322
  796 Fit      -0.034508
  797 Fit       0.000146
  798 Fit       0.001008
  799 Fit      -0.003402
  800 Fit      -0.012017
  801 Fit      -0.000799
  802 Fit      -0.002468
  803 Fit      -0.006484
  804 Fit      -0.014146
  805 Fit      -0.008483
  806 Fit      -0.003092
  807 Fit      -0.005187
  808 Fit      -0.008924
  809 Fit       0.005475
  810 Fit       0.001897
  811 Fit      -0.001399
  812 Fit       0.002330
  813 Fit       0.005461
  814 Fit       0.005831
  815 Fit       0.003969
  816 Fit       0.000896
  817 Fit      -0.002524
  818 Fit      -0.000841
  819 Fit       0.002743
  820 Fit       0.001784
  821 Fit      -0.001633
  822 Fit      -0.000934
  823 Fit      -0.012769
  824 Fit      -0.002576
  825 Fit      -0.003709
  826 Fit      -0.012906
  827 Fit      -0.011098
  828 Fit      -0.004013
  829 Fit      -0.005580
  830 Fit       0.005121
  831 Fit       0.006169
  832 Fit       0.004117
  833 Fit       0.004627
  834 Fit       0.003246
  835 Fit       0.003912
  836 Fit       0.004053
  837 Fit       0.004359
  838 Fit       0.002782
  839 Fit       0.003125
  840 Fit       0.003024
  841 Fit       0.003582
  842 Fit       0.001705
  843 Fit       0.001684
  844 Fit       0.010700
  845 Fit       0.011025
  846 Fit       0.014946
  847 Fit       0.010241
  848 Fit       0.006642
  849 Fit       0.006245
  850 Fit       0.021448
  851 Fit       0.015479
  852 Fit       0.010942
  853 Fit       0.007345
  854 Fit       0.018697
  855 Fit       0.012997
  856 Fit       0.008891
  857 Fit       0.005828
  858 Fit       0.004502
  859 Fit       0.007834
  860 Fit       0.007000
  861 Fit       0.006329
  862 Fit       0.005165
  863 Fit       0.003427
  864 Fit       0.008504
  865 Fit       0.008077
  866 Fit       0.007536
  867 Fit       0.006303
  868 Fit       0.004464
  869 Fit       0.008056
  870 Fit       0.008139
  871 Fit       0.007405
  872 Fit       0.021537
  873 Fit       0.022127
  874 Fit       0.023253
  875 Fit       0.019406
  876 Fit       0.019008
  877 Fit       0.019082
  878 Fit       0.018818
  879 Fit       0.018072
  880 Fit       0.017077
  881 Fit       0.016440
  882 Fit       0.015206
  883 Fit       0.012716
  884 Fit       0.013146
  885 Fit       0.004691
  886 Fit       0.010907
  887 Fit       0.007876
  888 Fit      -0.002438
  889 Fit      -0.005714
  890 Fit       0.006243
  891 Fit       0.009467
  892 Fit       0.006381
  893 Fit      -0.004935
  894 Fit       0.001257
  895 Fit       0.022327
  896 Fit       0.022062
  897 Fit       0.021924
  898 Fit       0.022126
  899 Fit       0.018665
  900 Fit       0.018289
  901 Fit       0.018662
  902 Fit       0.019013
  903 Fit       0.019160
  904 Fit       0.019836
  905 Fit       0.014555
  906 Fit       0.016090
  907 Fit       0.016997
  908 Fit       0.020384
  909 Fit       0.020859
  910 Fit       0.022290
  911 Fit       0.019011
  912 Fit       0.019986
  913 Fit       0.021605
  914 Fit       0.022505
  915 Fit       0.023002
  916 Fit       0.021642
  917 Fit       0.022923
  918 Fit       0.024002
  919 Fit       0.024190
  920 Fit       0.024380
  921 Fit       0.020493
  922 Fit       0.016052
  923 Fit       0.020322
  924 Fit       0.022223
  925 Fit       0.018022
  926 Fit       0.010567
  927 Fit       0.017117
  928 Fit       0.023696
  929 Fit       0.022800
  930 Fit       0.023883
  931 Fit       0.023085
  932 Fit       0.022706
  933 Fit       0.022814
  934 Fit       0.023966
  935 Fit       0.023842
  936 Fit       0.023336
  937 Fit       0.022950
  938 Fit       0.023404
  939 Fit       0.023338
  940 Fit      -0.006083
  941 Fit       0.001468
  942 Fit       0.001974
  943 Fit       0.007609
  944 Fit       0.010752
  945 Fit       0.004827
  946 Fit       0.010082
  947 Fit       0.012920
  948 Fit       0.015316
  949 Fit      -0.005442
  950 Fit       0.005722
  951 Fit       0.011019
  952 Fit       0.013822
  953 Fit      -0.005030
  954 Fit       0.007140
  955 Fit       0.005409
  956 Fit       0.012349
  957 Fit       0.009622
  958 Fit      -0.002617
  959 Fit      -0.005397
  960 Fit       0.006307
  961 Fit       0.008942
  962 Fit       0.004028
  963 Fit      -0.004414
  964 Fit       0.002150
  965 Fit       0.002265
  966 Fit       0.005321
  967 Fit       0.007287
  968 Fit       0.017512
  969 Fit       0.015064
  970 Fit       0.020213
  971 Fit       0.025069
  972 Fit       0.018501
  973 Fit       0.021197
  974 Fit       0.016240
  975 Fit       0.012705
  976 Fit       0.004465
  977 Fit      -0.004602
  978 Fit       0.005024
  979 Fit      -0.000237
  980 Fit       0.004199
  981 Fit      -0.002322
  982 Fit      -0.011547
  983 Fit       0.001055
  984 Fit      -0.009343
  985 Fit       0.015751
  986 Fit       0.013525
  987 Fit       0.023948
  988 Fit       0.017819
  989 Fit       0.011738
  990 Fit       0.022603
  991 Fit       0.008853
  992 Fit       0.006751
  993 Fit      -0.012491
  994 Fit       0.012688
  995 Fit       0.021782
  996 Fit       0.016061
  997 Fit       0.011864
  998 Fit       0.010819
  999 Fit       0.009385
 1000 Fit       0.001455
 1001 Fit       0.004493
 1002 Fit      -0.011946
 1003 Fit       0.003561
 1004 Fit       0.000814
 1005 Fit      -0.000369
 1006 Fit       0.000149
 1007 Fit      -0.000585
 1008 Fit       0.002632
 1009 Fit      -0.004307
 1010 Fit      -0.006560
 1011 Fit      -0.007324
 1012 Fit      -0.003436
 1013 Fit      -0.004204
 1014 Fit      -0.005130
 1015 Fit      -0.004808
 1016 Fit      -0.003654
 1017 Fit      -0.003699
 1018 Fit       0.004990
 1019 Fit       0.003781
 1020 Fit       0.005209
 1021 Fit       0.003452
 1022 Fit       0.002839
 1023 Fit       0.006820
 1024 Fit       0.004978
 1025 Fit       0.003678
 1026 Fit       0.002609
 1027 Fit       0.012478
 1028 Fit       0.008727
 1029 Fit       0.001994
 1030 Fit       0.001906
 1031 Fit       0.021128
 1032 Fit       0.018638
 1033 Fit       0.013762
 1034 Fit       0.016808
 1035 Fit       0.007883
 1036 Fit       0.014681
 1037 Fit       0.014780
 1038 Fit       0.014947
 1039 Fit       0.008713
 1040 Fit       0.010697
 1041 Fit       0.012319
 1042 Fit       0.012537
 1043 Fit       0.011519
 1044 Fit       0.008497
 1045 Fit       0.019534
 1046 Fit       0.018962
 1047 Fit       0.020067
 1048 Fit       0.020520
 1049 Fit       0.020694
 1050 Fit       0.017188
 1051 Fit       0.020966
 1052 Fit       0.022162
 1053 Fit       0.015861
 1054 Fit       0.018085
 1055 Fit       0.022382
 1056 Fit       0.002646
 1057 Fit       0.011353
 1058 Fit       0.012982
 1059 Fit       0.013028
 1060 Fit       0.014238
 1061 Fit       0.011281
 1062 Fit       0.011794
 1063 Fit       0.011703
 1064 Fit       0.008158
 1065 Fit      -0.010058
 1066 Fit       0.003706
 1067 Fit       0.008615
 1068 Fit       0.010202
 1069 Fit       0.003881
 1070 Fit       0.007551
 1071 Fit      -0.023365
 1072 Fit       0.021796
 1073 Fit       0.000031
 1074 Fit      -0.006400
 1075 Fit      -0.008636
 1076 Fit      -0.010620
 1077 Fit      -0.013051
 1078 Fit      -0.006650
 1079 Fit      -0.005483
 1080 Fit      -0.013701
 1081 Fit      -0.013873
 1082 Fit      -0.012977
 1083 Fit      -0.015208
 1084 Fit      -0.016071
 1085 Fit      -0.014720
 1086 Fit      -0.016505
 1087 Fit      -0.040991
 1088 Fit      -0.033282
 1089 Fit      -0.037335
 1090 Fit      -0.039592
 1091 Fit      -0.039913
 1092 Fit      -0.038178
 1093 Fit      -0.031191
 1094 Fit      -0.021107
 1095 Fit      -0.034729
 1096 Fit      -0.037449
 1097 Fit      -0.038459
 1098 Fit      -0.038053
 1099 Fit      -0.036019
 1100 Fit      -0.029478
 1101 Fit      -0.019375
 1102 Fit      -0.028277
 1103 Fit      -0.033745
 1104 Fit      -0.035855
 1105 Fit      -0.035917
 1106 Fit      -0.034160
 1107 Fit      -0.027281
 1108 Fit      -0.017767
 1109 Fit      -0.024472
 1110 Fit      -0.030896
 1111 Fit      -0.032711
 1112 Fit      -0.031652
 1113 Fit      -0.023780
 1114 Fit      -0.021562
 1115 Fit      -0.027354
 1116 Fit      -0.017858
 1117 Fit      -0.026283
 1118 Fit      -0.030586
 1119 Fit      -0.025171
 1120 Fit      -0.018840
 1121 Fit      -0.018515
 1122 Fit      -0.026432
 1123 Fit      -0.031780
 1124 Fit      -0.032385
 1125 Fit      -0.027771
 1126 Fit      -0.022510
 1127 Fit      -0.016265
 1128 Fit      -0.008410
 1129 Fit      -0.014960
 1130 Fit      -0.025276
 1131 Fit      -0.032391
 1132 Fit      -0.035856
 1133 Fit      -0.035569
 1134 Fit      -0.031236
 1135 Fit      -0.025039
 1136 Fit      -0.019276
 1137 Fit      -0.013418
 1138 Fit      -0.005814
 1139 Fit       0.005421
 1140 Fit      -0.039728
 1141 Fit      -0.036841
 1142 Fit      -0.031240
 1143 Fit      -0.021996
 1144 Fit      -0.030126
 1145 Fit      -0.036409
 1146 Fit      -0.039006
 1147 Fit      -0.036732
 1148 Fit      -0.023726
 1149 Fit      -0.012448
 1150 Fit      -0.030015
 1151 Fit      -0.038011
 1152 Fit      -0.034543
 1153 Fit      -0.021178
 1154 Fit      -0.029929
 1155 Fit       0.001348
 1156 Fit      -0.003714
 1157 Fit      -0.012109
 1158 Fit      -0.000517
 1159 Fit      -0.003311
 1160 Fit      -0.008477
 1161 Fit      -0.017979
 1162 Fit      -0.002027
 1163 Fit      -0.004145
 1164 Fit      -0.008110
 1165 Fit      -0.014528
 1166 Fit      -0.005563
 1167 Fit      -0.008541
 1168 Fit       0.000619
 1169 Fit       0.006609
 1170 Fit       0.005944
 1171 Fit       0.003460
 1172 Fit       0.000797
 1173 Fit       0.001304
 1174 Fit       0.003982
 1175 Fit       0.004291
 1176 Fit       0.002861
 1177 Fit       0.000419
 1178 Fit      -0.002363
 1179 Fit      -0.001088
 1180 Fit       0.001684
 1181 Fit       0.000904
 1182 Fit      -0.001759
 1183 Fit      -0.001224
 1184 Fit      -0.000237
 1185 Fit      -0.011209
 1186 Fit      -0.003880
 1187 Fit      -0.004847
 1188 Fit      -0.011137
 1189 Fit      -0.009596
 1190 Fit      -0.004235
 1191 Fit      -0.005554
 1192 Fit       0.005003
 1193 Fit       0.005199
 1194 Fit       0.003831
 1195 Fit       0.003859
 1196 Fit       0.003178
 1197 Fit       0.003268
 1198 Fit       0.003073
 1199 Fit       0.003173
 1200 Fit       0.002576
 1201 Fit       0.002692
 1202 Fit       0.002511
 1203 Fit       0.001967
 1204 Fit       0.001946
 1205 Fit       0.001672
 1206 Fit       0.001392
 1207 Fit       0.009975
 1208 Fit       0.013575
 1209 Fit       0.009548
 1210 Fit       0.006653
 1211 Fit       0.019953
 1212 Fit       0.014558
 1213 Fit       0.010450
 1214 Fit       0.007313
 1215 Fit       0.004965
 1216 Fit       0.021734
 1217 Fit       0.015171
 1218 Fit       0.010802
 1219 Fit       0.007667
 1220 Fit       0.013614
 1221 Fit       0.009441
 1222 Fit       0.005781
 1223 Fit       0.004774
 1224 Fit       0.003571
 1225 Fit       0.007416
 1226 Fit       0.006644
 1227 Fit       0.005802
 1228 Fit       0.004622
 1229 Fit       0.003155
 1230 Fit       0.007897
 1231 Fit       0.007365
 1232 Fit       0.006732
 1233 Fit       0.005706
 1234 Fit       0.004401
 1235 Fit       0.007067
 1236 Fit       0.007090
 1237 Fit       0.006618
 1238 Fit       0.021144
 1239 Fit       0.021666
 1240 Fit       0.018390
 1241 Fit       0.018379
 1242 Fit       0.018592
 1243 Fit       0.018796
 1244 Fit       0.019096
 1245 Fit       0.016591
 1246 Fit       0.016273
 1247 Fit       0.015921
 1248 Fit       0.015196
 1249 Fit       0.014145
 1250 Fit       0.014917
 1251 Fit       0.014049
 1252 Fit       0.012725
 1253 Fit       0.010173
 1254 Fit       0.003378
 1255 Fit       0.008805
 1256 Fit       0.006009
 1257 Fit      -0.002955
 1258 Fit      -0.004837
 1259 Fit       0.004569
 1260 Fit       0.007336
 1261 Fit       0.004687
 1262 Fit      -0.004413
 1263 Fit       0.000368
 1264 Fit       0.022190
 1265 Fit       0.021496
 1266 Fit       0.021371
 1267 Fit       0.021951
 1268 Fit       0.018563
 1269 Fit       0.018130
 1270 Fit       0.018210
 1271 Fit       0.018361
 1272 Fit       0.018836
 1273 Fit       0.015242
 1274 Fit       0.015607
 1275 Fit       0.016087
 1276 Fit       0.016500
 1277 Fit       0.017199
 1278 Fit       0.012292
 1279 Fit       0.013809
 1280 Fit       0.014840
 1281 Fit       0.018643
 1282 Fit       0.020084
 1283 Fit       0.017464
 1284 Fit       0.018932
 1285 Fit       0.019921
 1286 Fit       0.020757
 1287 Fit       0.018280
 1288 Fit       0.019499
 1289 Fit       0.020546
 1290 Fit       0.021107
 1291 Fit       0.021523
 1292 Fit       0.021107
 1293 Fit       0.021754
 1294 Fit       0.022980
 1295 Fit       0.023342
 1296 Fit       0.023291
 1297 Fit       0.017681
 1298 Fit       0.013395
 1299 Fit       0.017637
 1300 Fit       0.018934
 1301 Fit       0.014728
 1302 Fit       0.007221
 1303 Fit       0.014108
 1304 Fit       0.020726
 1305 Fit       0.021664
 1306 Fit       0.021076
 1307 Fit       0.020482
 1308 Fit       0.020544
 1309 Fit       0.021626
 1310 Fit       0.021664
 1311 Fit       0.020963
 1312 Fit       0.020656
 1313 Fit       0.020809
 1314 Fit       0.022390
 1315 Fit       0.021312
 1316 Fit       0.020678
 1317 Fit      -0.003191
 1318 Fit      -0.002546
 1319 Fit       0.003405
 1320 Fit       0.006974
 1321 Fit       0.001178
 1322 Fit       0.006320
 1323 Fit       0.009450
 1324 Fit       0.012087
 1325 Fit      -0.008017
 1326 Fit       0.002717
 1327 Fit       0.007715
 1328 Fit       0.010672
 1329 Fit       0.013017
 1330 Fit      -0.006628
 1331 Fit       0.003618
 1332 Fit       0.008612
 1333 Fit       0.011579
 1334 Fit      -0.005634
 1335 Fit       0.003436
 1336 Fit       0.008254
 1337 Fit       0.009487
 1338 Fit       0.007046
 1339 Fit      -0.002986
 1340 Fit      -0.009071
 1341 Fit      -0.004548
 1342 Fit       0.004177
 1343 Fit       0.006402
 1344 Fit       0.002358
 1345 Fit      -0.004220
 1346 Fit      -0.000108
 1347 Fit       0.000677
 1348 Fit       0.003033
 1349 Fit       0.003302
 1350 Fit       0.013428
 1351 Fit       0.011706
 1352 Fit       0.017335
 1353 Fit       0.015870
 1354 Fit       0.019435
 1355 Fit       0.015687
 1356 Fit       0.017209
 1357 Fit       0.003752
 1358 Fit      -0.004492
 1359 Fit       0.004048
 1360 Fit      -0.000954
 1361 Fit       0.002688
 1362 Fit      -0.003048
 1363 Fit      -0.011026
 1364 Fit      -0.001755
 1365 Fit      -0.010532
 1366 Fit      -0.014671
 1367 Fit       0.014022
 1368 Fit       0.011538
 1369 Fit       0.020951
 1370 Fit       0.015909
 1371 Fit       0.010823
 1372 Fit       0.020203
 1373 Fit       0.006576
 1374 Fit       0.004841
 1375 Fit       0.020111
 1376 Fit       0.014627
 1377 Fit       0.011708
 1378 Fit       0.008119
 1379 Fit       0.007666
 1380 Fit       0.007303
 1381 Fit      -0.000326
 1382 Fit       0.003084
 1383 Fit      -0.010059
 1384 Fit       0.000269
 1385 Fit      -0.001532
 1386 Fit      -0.003092
 -----------------------------------------------------------------
 Leave Link  602 at Sat Feb 17 21:03:59 2018, MaxMem=   33554432 cpu:       0.8

 Test job not archived.
 1\1\GINC-NODE003\SP\RHF\6-31G(d)\C9H20N2O3S1\WULSDORT\17-Feb-2018\0\\#
 HF/6-31G* Geom=AllCheck Guess=Read Pop=(MK,ReadRadii) Integral=(Grid=U
 ltraFine) iop(6/33=2)\\Optimization for frag33-conf1\\0,1\C,0,-1.12843
 84738,-1.6331931425,4.3725966623\C,0,0.7919669049,-4.089701769,2.59369
 14481\C,0,2.2464331925,-4.576759053,4.6007685962\C,0,-2.775959392,-2.0
 573474818,6.1154377745\C,0,-0.6477770588,-1.0108073498,6.762653086\C,0
 ,-1.7221510174,1.0248545773,2.2290610491\C,0,1.3699176898,-2.246506988
 5,4.3134078009\C,0,0.2896910714,-1.1950454902,3.9372363924\C,0,1.07216
 9591,-3.7410260669,4.0644779674\N,0,0.3020629057,-0.9211036449,2.49700
 32606\N,0,-1.4782929719,-1.5412030857,5.6910806086\O,0,-1.9006453637,-
 2.0778319748,3.5196475148\O,0,0.234084916,0.6121427442,0.5075870462\O,
 0,0.8047047554,1.535538513,2.8293785531\S,0,0.0285634412,0.6509487898,
 1.9543971875\H,0,1.5798489265,-3.7051527096,1.9350112676\H,0,0.7470561
 965,-5.17736404,2.4629575948\H,0,-0.1696055319,-3.6876240644,2.2612306
 144\H,0,3.1671391267,-4.3620775298,4.0432394767\H,0,2.4424848486,-4.36
 85630995,5.6597414765\H,0,2.0410834274,-5.6487191542,4.5019517009\H,0,
 -2.6437406871,-2.8613858888,6.8507739835\H,0,-3.2994508078,-2.44231505
 29,5.2421477841\H,0,-3.3687452699,-1.2588374161,6.5790088989\H,0,-1.22
 95267518,-0.2938298569,7.3547528898\H,0,0.2275566861,-0.4929473507,6.3
 75160576\H,0,-0.3112340445,-1.8117542271,7.434912614\H,0,-1.8981905035
 ,2.0205958092,1.815565225\H,0,-2.3322870225,0.2809385818,1.7147048446\
 H,0,-1.9333261074,1.0182007775,3.2996685907\H,0,2.2779553885,-1.956670
 2872,3.7710167088\H,0,1.5931873798,-2.1254920229,5.3817299013\H,0,0.57
 88089225,-0.2552390452,4.4141115082\H,0,0.1793817452,-4.0125816917,4.6
 476206834\H,0,-0.2789516571,-1.5747388815,1.9743186067\\Version=AM64L-
 G09RevC.01\State=1-A\HF=-1083.3795368\RMSD=4.683e-09\Dipole=-1.0854403
 ,-0.8866057,2.4735592\Quadrupole=2.204985,-2.9324232,0.7274382,-9.1825
 803,1.9129399,4.0672517\PG=C01 [X(C9H20N2O3S1)]\\@


 The arm of the moral universe is long, but it bends toward justice.
 -- Martin Luther King, Jr.
 Job cpu time:  0 days  0 hours  5 minutes 21.9 seconds.
 File lengths (MBytes):  RWF=     42 Int=      0 D2E=      0 Chk=      6 Scr=      1
 Normal termination of Gaussian 09 at Sat Feb 17 21:04:00 2018.
