 Entering Gaussian System, Link 0=g09
 Initial command:
 /home/fb_chem/chemsoft/lx24-amd64/Gaussian_09_C.01_NBO_3.1_64_istanbul-64/g09/l1.exe /local/2397388.1.parallel_long/Gau-17891.inp -scrdir=/local/2397388.1.parallel_long/
 Entering Link 1 = /home/fb_chem/chemsoft/lx24-amd64/Gaussian_09_C.01_NBO_3.1_64_istanbul-64/g09/l1.exe PID=     17892.
  
 Copyright (c) 1988,1990,1992,1993,1995,1998,2003,2009,2011,
            Gaussian, Inc.  All Rights Reserved.
  
 This is part of the Gaussian(R) 09 program.  It is based on
 the Gaussian(R) 03 system (copyright 2003, Gaussian, Inc.),
 the Gaussian(R) 98 system (copyright 1998, Gaussian, Inc.),
 the Gaussian(R) 94 system (copyright 1995, Gaussian, Inc.),
 the Gaussian 92(TM) system (copyright 1992, Gaussian, Inc.),
 the Gaussian 90(TM) system (copyright 1990, Gaussian, Inc.),
 the Gaussian 88(TM) system (copyright 1988, Gaussian, Inc.),
 the Gaussian 86(TM) system (copyright 1986, Carnegie Mellon
 University), and the Gaussian 82(TM) system (copyright 1983,
 Carnegie Mellon University). Gaussian is a federally registered
 trademark of Gaussian, Inc.
  
 This software contains proprietary and confidential information,
 including trade secrets, belonging to Gaussian, Inc.
  
 This software is provided under written license and may be
 used, copied, transmitted, or stored only in accord with that
 written license.
  
 The following legend is applicable only to US Government
 contracts under FAR:
  
                    RESTRICTED RIGHTS LEGEND
  
 Use, reproduction and disclosure by the US Government is
 subject to restrictions as set forth in subparagraphs (a)
 and (c) of the Commercial Computer Software - Restricted
 Rights clause in FAR 52.227-19.
  
 Gaussian, Inc.
 340 Quinnipiac St., Bldg. 40, Wallingford CT 06492
  
  
 ---------------------------------------------------------------
 Warning -- This program may not be used in any manner that
 competes with the business of Gaussian, Inc. or will provide
 assistance to any competitor of Gaussian, Inc.  The licensee
 of this program is prohibited from giving any competitor of
 Gaussian, Inc. access to this program.  By using this program,
 the user acknowledges that Gaussian, Inc. is engaged in the
 business of creating and licensing software in the field of
 computational chemistry and represents and warrants to the
 licensee that it is not a competitor of Gaussian, Inc. and that
 it will not use this program in any manner prohibited above.
 ---------------------------------------------------------------
  

 Cite this work as:
 Gaussian 09, Revision C.01,
 M. J. Frisch, G. W. Trucks, H. B. Schlegel, G. E. Scuseria, 
 M. A. Robb, J. R. Cheeseman, G. Scalmani, V. Barone, B. Mennucci, 
 G. A. Petersson, H. Nakatsuji, M. Caricato, X. Li, H. P. Hratchian, 
 A. F. Izmaylov, J. Bloino, G. Zheng, J. L. Sonnenberg, M. Hada, 
 M. Ehara, K. Toyota, R. Fukuda, J. Hasegawa, M. Ishida, T. Nakajima, 
 Y. Honda, O. Kitao, H. Nakai, T. Vreven, J. A. Montgomery, Jr., 
 J. E. Peralta, F. Ogliaro, M. Bearpark, J. J. Heyd, E. Brothers, 
 K. N. Kudin, V. N. Staroverov, T. Keith, R. Kobayashi, J. Normand, 
 K. Raghavachari, A. Rendell, J. C. Burant, S. S. Iyengar, J. Tomasi, 
 M. Cossi, N. Rega, J. M. Millam, M. Klene, J. E. Knox, J. B. Cross, 
 V. Bakken, C. Adamo, J. Jaramillo, R. Gomperts, R. E. Stratmann, 
 O. Yazyev, A. J. Austin, R. Cammi, C. Pomelli, J. W. Ochterski, 
 R. L. Martin, K. Morokuma, V. G. Zakrzewski, G. A. Voth, 
 P. Salvador, J. J. Dannenberg, S. Dapprich, A. D. Daniels, 
 O. Farkas, J. B. Foresman, J. V. Ortiz, J. Cioslowski, 
 and D. J. Fox, Gaussian, Inc., Wallingford CT, 2010.
 
 ******************************************
 Gaussian 09:  AM64L-G09RevC.01 23-Sep-2011
                16-Feb-2018 
 ******************************************
 %nprocs=4
 Will use up to    4 processors via shared memory.
 %chk=frag33-conf1.chk
 ---------------------------------------------------------
 #B3LYP/6-31G* Integral=(Grid=UltraFine) freq Opt pop=none
 ---------------------------------------------------------
 1/14=-1,18=20,19=15,26=3,38=1/1,3;
 2/9=110,12=2,17=6,18=5,40=1/2;
 3/5=1,6=6,7=1,11=2,16=1,25=1,30=1,71=1,74=-5,75=-5/1,2,3;
 4//1;
 5/5=2,38=5/2;
 7//1,2,3,16;
 1/14=-1,18=20,19=15/3(2);
 2/9=110/2;
 99//99;
 2/9=110/2;
 3/5=1,6=6,7=1,11=2,16=1,25=1,30=1,71=1,74=-5,75=-5/1,2,3;
 4/5=5,16=3/1;
 5/5=2,38=5/2;
 7//1,2,3,16;
 1/14=-1,18=20,19=15/3(-5);
 2/9=110/2;
 99/9=1/99;
 -----------------------------
 Optimization for frag33-conf1
 -----------------------------
 Charge =  0 Multiplicity = 1
 Symbolic Z-Matrix:
 C                    -1.17388  -1.62408   4.33901 
 C                     0.87184  -4.07249   2.60232 
 C                     2.21357  -4.49662   4.66251 
 C                    -2.80742  -2.11109   6.11148 
 C                    -0.66187  -1.08672   6.75661 
 C                    -1.58012   1.06122   2.37435 
 C                     1.34257  -2.17508   4.27367 
 C                     0.23442  -1.1761    3.89447 
 C                     1.05947  -3.68031   4.06703 
 N                     0.23412  -0.98768   2.40285 
 N                    -1.51622  -1.58575   5.68398 
 O                    -1.98427  -2.00654   3.4805 
 O                     0.03128   0.4637    0.37162 
 O                     1.0446    1.40844   2.4694 
 S                     0.04481   0.58037   1.81915 
 H                     1.69438  -3.70238   1.98143 
 H                     0.83261  -5.162     2.49277 
 H                    -0.06785  -3.68499   2.20201 
 H                     3.15843  -4.27933   4.15268 
 H                     2.34173  -4.27216   5.72681 
 H                     2.01875  -5.5707    4.57273 
 H                    -2.63701  -2.90838   6.84117 
 H                    -3.38843  -2.51576   5.27931 
 H                    -3.37715  -1.30314   6.57997 
 H                    -1.25581  -0.44428   7.41393 
 H                     0.18335  -0.50655   6.38986 
 H                    -0.28987  -1.94311   7.32649 
 H                    -1.7886    2.05271   1.96576 
 H                    -2.31101   0.3468    1.9925 
 H                    -1.59306   1.10645   3.46385 
 H                     2.26239  -1.9061    3.73625 
 H                     1.57257  -2.03103   5.33683 
 H                     0.46882  -0.21271   4.35681 
 H                     0.15225  -3.95731   4.61712 
 H                    -0.4736   -1.5999    1.97081 
 

 GradGradGradGradGradGradGradGradGradGradGradGradGradGradGradGradGradGrad
 Berny optimization.
 Initialization pass.
                           ----------------------------
                           !    Initial Parameters    !
                           ! (Angstroms and Degrees)  !
 --------------------------                            --------------------------
 ! Name  Definition              Value          Derivative Info.                !
 --------------------------------------------------------------------------------
 ! R1    R(1,8)                  1.5432         estimate D2E/DX2                !
 ! R2    R(1,11)                 1.3884         estimate D2E/DX2                !
 ! R3    R(1,12)                 1.241          estimate D2E/DX2                !
 ! R4    R(2,9)                  1.5279         estimate D2E/DX2                !
 ! R5    R(2,16)                 1.095          estimate D2E/DX2                !
 ! R6    R(2,17)                 1.0957         estimate D2E/DX2                !
 ! R7    R(2,18)                 1.0924         estimate D2E/DX2                !
 ! R8    R(3,9)                  1.5339         estimate D2E/DX2                !
 ! R9    R(3,19)                 1.0954         estimate D2E/DX2                !
 ! R10   R(3,20)                 1.0952         estimate D2E/DX2                !
 ! R11   R(3,21)                 1.0953         estimate D2E/DX2                !
 ! R12   R(4,11)                 1.4581         estimate D2E/DX2                !
 ! R13   R(4,22)                 1.0941         estimate D2E/DX2                !
 ! R14   R(4,23)                 1.0926         estimate D2E/DX2                !
 ! R15   R(4,24)                 1.094          estimate D2E/DX2                !
 ! R16   R(5,11)                 1.4593         estimate D2E/DX2                !
 ! R17   R(5,25)                 1.0943         estimate D2E/DX2                !
 ! R18   R(5,26)                 1.0888         estimate D2E/DX2                !
 ! R19   R(5,27)                 1.0939         estimate D2E/DX2                !
 ! R20   R(6,15)                 1.7832         estimate D2E/DX2                !
 ! R21   R(6,28)                 1.0925         estimate D2E/DX2                !
 ! R22   R(6,29)                 1.0911         estimate D2E/DX2                !
 ! R23   R(6,30)                 1.0905         estimate D2E/DX2                !
 ! R24   R(7,8)                  1.5394         estimate D2E/DX2                !
 ! R25   R(7,9)                  1.5455         estimate D2E/DX2                !
 ! R26   R(7,31)                 1.0987         estimate D2E/DX2                !
 ! R27   R(7,32)                 1.0973         estimate D2E/DX2                !
 ! R28   R(8,10)                 1.5035         estimate D2E/DX2                !
 ! R29   R(8,33)                 1.094          estimate D2E/DX2                !
 ! R30   R(9,34)                 1.0965         estimate D2E/DX2                !
 ! R31   R(10,15)                1.6838         estimate D2E/DX2                !
 ! R32   R(10,35)                1.0307         estimate D2E/DX2                !
 ! R33   R(13,15)                1.4523         estimate D2E/DX2                !
 ! R34   R(14,15)                1.4519         estimate D2E/DX2                !
 ! A1    A(8,1,11)             119.7388         estimate D2E/DX2                !
 ! A2    A(8,1,12)             119.0851         estimate D2E/DX2                !
 ! A3    A(11,1,12)            121.1749         estimate D2E/DX2                !
 ! A4    A(9,2,16)             111.3814         estimate D2E/DX2                !
 ! A5    A(9,2,17)             110.8224         estimate D2E/DX2                !
 ! A6    A(9,2,18)             111.4611         estimate D2E/DX2                !
 ! A7    A(16,2,17)            107.8356         estimate D2E/DX2                !
 ! A8    A(16,2,18)            108.5709         estimate D2E/DX2                !
 ! A9    A(17,2,18)            106.5751         estimate D2E/DX2                !
 ! A10   A(9,3,19)             111.268          estimate D2E/DX2                !
 ! A11   A(9,3,20)             110.868          estimate D2E/DX2                !
 ! A12   A(9,3,21)             110.8683         estimate D2E/DX2                !
 ! A13   A(19,3,20)            108.1012         estimate D2E/DX2                !
 ! A14   A(19,3,21)            108.0472         estimate D2E/DX2                !
 ! A15   A(20,3,21)            107.5444         estimate D2E/DX2                !
 ! A16   A(11,4,22)            108.6728         estimate D2E/DX2                !
 ! A17   A(11,4,23)            112.398          estimate D2E/DX2                !
 ! A18   A(11,4,24)            108.7018         estimate D2E/DX2                !
 ! A19   A(22,4,23)            108.7148         estimate D2E/DX2                !
 ! A20   A(22,4,24)            109.4919         estimate D2E/DX2                !
 ! A21   A(23,4,24)            108.8293         estimate D2E/DX2                !
 ! A22   A(11,5,25)            108.9361         estimate D2E/DX2                !
 ! A23   A(11,5,26)            112.899          estimate D2E/DX2                !
 ! A24   A(11,5,27)            108.3191         estimate D2E/DX2                !
 ! A25   A(25,5,26)            108.1097         estimate D2E/DX2                !
 ! A26   A(25,5,27)            109.3455         estimate D2E/DX2                !
 ! A27   A(26,5,27)            109.1868         estimate D2E/DX2                !
 ! A28   A(15,6,28)            107.5885         estimate D2E/DX2                !
 ! A29   A(15,6,29)            108.9592         estimate D2E/DX2                !
 ! A30   A(15,6,30)            109.4549         estimate D2E/DX2                !
 ! A31   A(28,6,29)            109.6052         estimate D2E/DX2                !
 ! A32   A(28,6,30)            109.4969         estimate D2E/DX2                !
 ! A33   A(29,6,30)            111.6454         estimate D2E/DX2                !
 ! A34   A(8,7,9)              117.8554         estimate D2E/DX2                !
 ! A35   A(8,7,31)             108.8617         estimate D2E/DX2                !
 ! A36   A(8,7,32)             107.72           estimate D2E/DX2                !
 ! A37   A(9,7,31)             109.0495         estimate D2E/DX2                !
 ! A38   A(9,7,32)             107.206          estimate D2E/DX2                !
 ! A39   A(31,7,32)            105.4441         estimate D2E/DX2                !
 ! A40   A(1,8,7)              113.4267         estimate D2E/DX2                !
 ! A41   A(1,8,10)             108.7828         estimate D2E/DX2                !
 ! A42   A(1,8,33)             109.2335         estimate D2E/DX2                !
 ! A43   A(7,8,10)             109.0174         estimate D2E/DX2                !
 ! A44   A(7,8,33)             108.2479         estimate D2E/DX2                !
 ! A45   A(10,8,33)            107.9972         estimate D2E/DX2                !
 ! A46   A(2,9,3)              109.1447         estimate D2E/DX2                !
 ! A47   A(2,9,7)              113.6196         estimate D2E/DX2                !
 ! A48   A(2,9,34)             108.3293         estimate D2E/DX2                !
 ! A49   A(3,9,7)              109.183          estimate D2E/DX2                !
 ! A50   A(3,9,34)             107.0562         estimate D2E/DX2                !
 ! A51   A(7,9,34)             109.3001         estimate D2E/DX2                !
 ! A52   A(8,10,15)            117.4287         estimate D2E/DX2                !
 ! A53   A(8,10,35)            109.9724         estimate D2E/DX2                !
 ! A54   A(15,10,35)           109.3075         estimate D2E/DX2                !
 ! A55   A(1,11,4)             119.5012         estimate D2E/DX2                !
 ! A56   A(1,11,5)             125.2496         estimate D2E/DX2                !
 ! A57   A(4,11,5)             115.2241         estimate D2E/DX2                !
 ! A58   A(6,15,10)            104.2188         estimate D2E/DX2                !
 ! A59   A(6,15,13)            108.8753         estimate D2E/DX2                !
 ! A60   A(6,15,14)            109.5265         estimate D2E/DX2                !
 ! A61   A(10,15,13)           105.7683         estimate D2E/DX2                !
 ! A62   A(10,15,14)           107.3635         estimate D2E/DX2                !
 ! A63   A(13,15,14)           119.9087         estimate D2E/DX2                !
 ! D1    D(11,1,8,7)            72.4363         estimate D2E/DX2                !
 ! D2    D(11,1,8,10)         -166.0661         estimate D2E/DX2                !
 ! D3    D(11,1,8,33)          -48.4012         estimate D2E/DX2                !
 ! D4    D(12,1,8,7)          -107.9581         estimate D2E/DX2                !
 ! D5    D(12,1,8,10)           13.5395         estimate D2E/DX2                !
 ! D6    D(12,1,8,33)          131.2043         estimate D2E/DX2                !
 ! D7    D(8,1,11,4)          -175.0487         estimate D2E/DX2                !
 ! D8    D(8,1,11,5)             3.0394         estimate D2E/DX2                !
 ! D9    D(12,1,11,4)            5.3542         estimate D2E/DX2                !
 ! D10   D(12,1,11,5)         -176.5578         estimate D2E/DX2                !
 ! D11   D(16,2,9,3)           -71.1137         estimate D2E/DX2                !
 ! D12   D(16,2,9,7)            50.9888         estimate D2E/DX2                !
 ! D13   D(16,2,9,34)          172.6495         estimate D2E/DX2                !
 ! D14   D(17,2,9,3)            48.9399         estimate D2E/DX2                !
 ! D15   D(17,2,9,7)           171.0424         estimate D2E/DX2                !
 ! D16   D(17,2,9,34)          -67.297          estimate D2E/DX2                !
 ! D17   D(18,2,9,3)           167.4591         estimate D2E/DX2                !
 ! D18   D(18,2,9,7)           -70.4384         estimate D2E/DX2                !
 ! D19   D(18,2,9,34)           51.2222         estimate D2E/DX2                !
 ! D20   D(19,3,9,2)            62.3673         estimate D2E/DX2                !
 ! D21   D(19,3,9,7)           -62.371          estimate D2E/DX2                !
 ! D22   D(19,3,9,34)          179.4138         estimate D2E/DX2                !
 ! D23   D(20,3,9,2)          -177.2882         estimate D2E/DX2                !
 ! D24   D(20,3,9,7)            57.9734         estimate D2E/DX2                !
 ! D25   D(20,3,9,34)          -60.2418         estimate D2E/DX2                !
 ! D26   D(21,3,9,2)           -57.909          estimate D2E/DX2                !
 ! D27   D(21,3,9,7)           177.3527         estimate D2E/DX2                !
 ! D28   D(21,3,9,34)           59.1374         estimate D2E/DX2                !
 ! D29   D(22,4,11,1)          121.4225         estimate D2E/DX2                !
 ! D30   D(22,4,11,5)          -56.8516         estimate D2E/DX2                !
 ! D31   D(23,4,11,1)            1.0512         estimate D2E/DX2                !
 ! D32   D(23,4,11,5)         -177.2229         estimate D2E/DX2                !
 ! D33   D(24,4,11,1)         -119.4832         estimate D2E/DX2                !
 ! D34   D(24,4,11,5)           62.2427         estimate D2E/DX2                !
 ! D35   D(25,5,11,1)          134.8341         estimate D2E/DX2                !
 ! D36   D(25,5,11,4)          -47.0053         estimate D2E/DX2                !
 ! D37   D(26,5,11,1)           14.7248         estimate D2E/DX2                !
 ! D38   D(26,5,11,4)         -167.1146         estimate D2E/DX2                !
 ! D39   D(27,5,11,1)         -106.3168         estimate D2E/DX2                !
 ! D40   D(27,5,11,4)           71.8438         estimate D2E/DX2                !
 ! D41   D(28,6,15,10)        -176.2304         estimate D2E/DX2                !
 ! D42   D(28,6,15,13)         -63.717          estimate D2E/DX2                !
 ! D43   D(28,6,15,14)          69.155          estimate D2E/DX2                !
 ! D44   D(29,6,15,10)         -57.4743         estimate D2E/DX2                !
 ! D45   D(29,6,15,13)          55.0391         estimate D2E/DX2                !
 ! D46   D(29,6,15,14)        -172.0889         estimate D2E/DX2                !
 ! D47   D(30,6,15,10)          64.8685         estimate D2E/DX2                !
 ! D48   D(30,6,15,13)         177.3818         estimate D2E/DX2                !
 ! D49   D(30,6,15,14)         -49.7461         estimate D2E/DX2                !
 ! D50   D(9,7,8,1)             42.6027         estimate D2E/DX2                !
 ! D51   D(9,7,8,10)           -78.7635         estimate D2E/DX2                !
 ! D52   D(9,7,8,33)           163.9942         estimate D2E/DX2                !
 ! D53   D(31,7,8,1)           167.3984         estimate D2E/DX2                !
 ! D54   D(31,7,8,10)           46.0322         estimate D2E/DX2                !
 ! D55   D(31,7,8,33)          -71.2101         estimate D2E/DX2                !
 ! D56   D(32,7,8,1)           -78.7364         estimate D2E/DX2                !
 ! D57   D(32,7,8,10)          159.8974         estimate D2E/DX2                !
 ! D58   D(32,7,8,33)           42.6551         estimate D2E/DX2                !
 ! D59   D(8,7,9,2)             64.779          estimate D2E/DX2                !
 ! D60   D(8,7,9,3)           -173.1398         estimate D2E/DX2                !
 ! D61   D(8,7,9,34)           -56.3396         estimate D2E/DX2                !
 ! D62   D(31,7,9,2)           -59.9237         estimate D2E/DX2                !
 ! D63   D(31,7,9,3)            62.1575         estimate D2E/DX2                !
 ! D64   D(31,7,9,34)          178.9578         estimate D2E/DX2                !
 ! D65   D(32,7,9,2)          -173.6177         estimate D2E/DX2                !
 ! D66   D(32,7,9,3)           -51.5365         estimate D2E/DX2                !
 ! D67   D(32,7,9,34)           65.2637         estimate D2E/DX2                !
 ! D68   D(1,8,10,15)           98.1593         estimate D2E/DX2                !
 ! D69   D(1,8,10,35)          -27.6411         estimate D2E/DX2                !
 ! D70   D(7,8,10,15)         -137.6879         estimate D2E/DX2                !
 ! D71   D(7,8,10,35)           96.5116         estimate D2E/DX2                !
 ! D72   D(33,8,10,15)         -20.2869         estimate D2E/DX2                !
 ! D73   D(33,8,10,35)        -146.0873         estimate D2E/DX2                !
 ! D74   D(8,10,15,6)          -63.1897         estimate D2E/DX2                !
 ! D75   D(8,10,15,13)        -177.9191         estimate D2E/DX2                !
 ! D76   D(8,10,15,14)          52.946          estimate D2E/DX2                !
 ! D77   D(35,10,15,6)          62.9378         estimate D2E/DX2                !
 ! D78   D(35,10,15,13)        -51.7916         estimate D2E/DX2                !
 ! D79   D(35,10,15,14)        179.0735         estimate D2E/DX2                !
 --------------------------------------------------------------------------------
 Trust Radius=3.00D-01 FncErr=1.00D-07 GrdErr=1.00D-06
 Number of steps in this run=    186 maximum allowed number of steps=    210.
 GradGradGradGradGradGradGradGradGradGradGradGradGradGradGradGradGradGrad

                          Input orientation:                          
 ---------------------------------------------------------------------
 Center     Atomic      Atomic             Coordinates (Angstroms)
 Number     Number       Type             X           Y           Z
 ---------------------------------------------------------------------
      1          6           0       -1.173881   -1.624081    4.339008
      2          6           0        0.871844   -4.072488    2.602317
      3          6           0        2.213569   -4.496624    4.662513
      4          6           0       -2.807417   -2.111087    6.111484
      5          6           0       -0.661875   -1.086716    6.756613
      6          6           0       -1.580116    1.061221    2.374355
      7          6           0        1.342567   -2.175084    4.273665
      8          6           0        0.234416   -1.176098    3.894470
      9          6           0        1.059469   -3.680310    4.067033
     10          7           0        0.234117   -0.987679    2.402853
     11          7           0       -1.516224   -1.585750    5.683982
     12          8           0       -1.984275   -2.006535    3.480498
     13          8           0        0.031279    0.463696    0.371616
     14          8           0        1.044604    1.408438    2.469400
     15         16           0        0.044807    0.580373    1.819146
     16          1           0        1.694381   -3.702384    1.981431
     17          1           0        0.832614   -5.162000    2.492771
     18          1           0       -0.067853   -3.684988    2.202009
     19          1           0        3.158428   -4.279328    4.152678
     20          1           0        2.341727   -4.272161    5.726807
     21          1           0        2.018751   -5.570698    4.572731
     22          1           0       -2.637011   -2.908380    6.841173
     23          1           0       -3.388429   -2.515765    5.279313
     24          1           0       -3.377151   -1.303135    6.579970
     25          1           0       -1.255809   -0.444283    7.413925
     26          1           0        0.183348   -0.506550    6.389855
     27          1           0       -0.289866   -1.943112    7.326488
     28          1           0       -1.788597    2.052710    1.965765
     29          1           0       -2.311008    0.346804    1.992503
     30          1           0       -1.593062    1.106448    3.463848
     31          1           0        2.262393   -1.906099    3.736252
     32          1           0        1.572566   -2.031028    5.336834
     33          1           0        0.468817   -0.212712    4.356815
     34          1           0        0.152246   -3.957311    4.617116
     35          1           0       -0.473596   -1.599902    1.970810
 ---------------------------------------------------------------------
                    Distance matrix (angstroms):
                    1          2          3          4          5
     1  C    0.000000
     2  C    3.632600   0.000000
     3  C    4.453198   2.494900   0.000000
     4  C    2.459123   5.449615   5.744615   0.000000
     5  C    2.528978   5.340908   4.927566   2.463510   0.000000
     6  C    3.351975   5.693772   7.107556   5.053310   4.965983
     7  C    2.576894   2.571988   2.509859   4.539167   3.371552
     8  C    1.543245   3.234972   3.941170   3.878415   3.000532
     9  C    3.047933   1.527874   1.533920   4.647047   4.113829
    10  N    2.477128   3.156347   4.619197   4.926146   4.446103
    11  N    1.388389   4.624218   4.840242   1.458052   1.459276
    12  O    1.240986   3.632737   5.021911   2.758728   3.650717
    13  O    4.642351   5.124407   6.912233   6.901723   6.606999
    14  O    4.196818   5.485259   6.406714   6.363167   5.245766
    15  S    3.562938   4.790247   6.210005   5.814061   5.259008
    16  H    4.254931   1.095009   2.844042   6.313141   5.932624
    17  H    4.466708   1.095708   2.656604   5.971012   6.084553
    18  H    3.168185   1.092444   3.452205   5.026566   5.277149
    19  H    5.084678   2.770355   1.095403   6.643004   5.618538
    20  H    4.614956   3.458737   1.095230   5.597491   4.497687
    21  H    5.081664   2.728106   1.095285   6.134213   5.662260
    22  H    3.170332   5.624510   5.549523   1.094149   2.688266
    23  H    2.565832   5.266841   5.973828   1.092633   3.414483
    24  H    3.159005   6.445540   6.717972   1.094012   2.729608
    25  H    3.294503   6.390802   6.002359   2.623371   1.094320
    26  H    2.701282   5.247417   4.798562   3.405394   1.088810
    27  H    3.131821   5.310518   4.459189   2.800450   1.093875
    28  H    4.419157   6.708293   8.135327   5.963403   5.837613
    29  H    3.268567   5.480197   7.145596   4.822204   5.241313
    30  H    2.897829   5.799946   6.879074   4.340181   4.064404
    31  H    3.500118   2.812947   2.751574   5.602385   4.283142
    32  H    2.950294   3.483698   2.635290   4.448679   2.810734
    33  H    2.165811   4.258939   4.635678   4.173296   2.793095
    34  H    2.698132   2.142545   2.131190   3.794902   3.671588
    35  H    2.469685   2.884907   4.780911   4.780503   4.816920
                    6          7          8          9         10
     6  C    0.000000
     7  C    4.756377   0.000000
     8  C    3.257127   1.539402   0.000000
     9  C    5.684600   1.545492   2.642265   0.000000
    10  N    2.736831   2.477605   1.503470   3.271232   0.000000
    11  N    4.238416   3.241758   2.536713   3.692682   3.766589
    12  O    3.286035   3.424236   2.404909   3.522771   2.668454
    13  O    2.639051   4.889645   3.891104   5.646775   2.504708
    14  O    2.649291   4.023157   3.060565   5.333667   2.530355
    15  S    1.783212   3.911700   2.725457   4.923003   1.683847
    16  H    5.793846   2.776825   3.489030   2.180215   3.111204
    17  H    6.675610   3.514726   4.267319   2.173746   4.217966
    18  H    4.984290   2.925893   3.041433   2.179264   2.721580
    19  H    7.357832   2.782055   4.271598   2.184442   4.737977
    20  H    7.420563   2.740014   4.169392   2.179295   5.126257
    21  H    7.859202   3.475177   4.791283   2.179340   5.375625
    22  H    6.068544   4.792375   4.464186   4.685690   5.624158
    23  H    4.950112   4.848681   4.103353   4.754953   4.871540
    24  H    5.148467   5.324947   4.502384   5.625780   5.530739
    25  H    5.269629   4.428144   3.891387   5.199429   5.256044
    26  H    4.657462   2.933608   2.584154   4.029372   4.016248
    27  H    5.934172   3.469636   3.555550   3.932252   5.042776
    28  H    1.092456   5.744984   4.270561   6.737531   3.677823
    29  H    1.091057   4.991215   3.523620   5.646365   2.902912
    30  H    1.090508   4.476849   2.955526   5.505707   2.974839
    31  H    5.042284   1.098747   2.161162   2.168931   2.595255
    32  H    5.317677   1.097260   2.145219   2.143780   3.389434
    33  H    3.122688   2.149711   1.093993   3.529458   2.115094
    34  H    5.763395   2.170519   2.874737   1.096529   3.705182
    35  H    2.910122   2.988716   2.093169   3.327542   1.030697
                   11         12         13         14         15
    11  N    0.000000
    12  O    2.291609   0.000000
    13  O    5.900528   4.453049   0.000000
    14  O    5.084933   4.675304   2.513973   0.000000
    15  S    4.697432   3.683661   1.452288   1.451935   0.000000
    16  H    5.338260   4.319215   4.765882   5.175019   4.592324
    17  H    5.337644   4.343665   6.065468   6.573899   5.835175
    18  H    4.316100   2.850335   4.535609   5.220349   4.283992
    19  H    5.608265   5.662579   6.824351   6.297012   6.225488
    20  H    4.701323   5.375245   7.512962   6.675511   6.640238
    21  H    5.441575   5.469958   7.616648   7.353999   7.022419
    22  H    2.084371   3.540272   7.768259   7.162514   6.677148
    23  H    2.129280   2.338097   6.682595   6.553378   5.774594
    24  H    2.084637   3.470101   7.299503   6.618257   6.158153
    25  H    2.088891   4.294548   7.216311   5.759584   5.834645
    26  H    2.133419   3.925927   6.097845   4.447349   4.700211
    27  H    2.080743   4.203176   7.366554   6.050207   6.067191
    28  H    5.209387   4.337070   2.894516   2.948858   2.355980
    29  H    4.241870   2.803407   2.850833   3.551708   2.373704
    30  H    3.490391   3.137514   3.551551   2.835032   2.380003
    31  H    4.263123   4.255547   4.681301   3.751544   3.843895
    32  H    3.139970   4.012193   5.766507   4.508975   4.639784
    33  H    2.754450   3.162814   4.065806   2.553819   2.692310
    34  H    3.089709   3.108399   6.130596   5.848098   5.332050
    35  H    3.856802   2.174088   2.659090   3.406411   2.246185
                   16         17         18         19         20
    16  H    0.000000
    17  H    1.770478   0.000000
    18  H    1.776071   1.754123   0.000000
    19  H    2.681531   2.990620   3.816705   0.000000
    20  H    3.843377   3.678073   4.309878   1.773396   0.000000
    21  H    3.211021   2.429031   3.678334   1.772835   1.767032
    22  H    6.558087   6.002142   5.359621   6.534112   5.281056
    23  H    6.174063   5.708290   4.675800   6.873194   6.009981
    24  H    7.254198   7.022688   5.982576   7.580452   6.499890
    25  H    6.987906   7.129945   6.251198   6.695431   5.517362
    26  H    5.650733   6.105901   5.263424   5.299992   4.390679
    27  H    5.966734   5.914898   5.416983   5.236574   3.861183
    28  H    6.726997   7.694188   5.994827   8.327686   8.438544
    29  H    5.695541   6.362355   4.618548   7.482124   7.545053
    30  H    6.010800   6.791196   5.184242   7.215104   7.037968
    31  H    2.574621   3.767148   3.308835   2.570701   3.093033
    32  H    3.750600   4.294090   3.905596   2.995336   2.401326
    33  H    4.395710   5.301176   4.121639   4.879861   4.675875
    34  H    3.064312   2.535156   2.440357   3.058845   2.474748
    35  H    3.020044   3.829774   2.136741   5.013129   5.401345
                   21         22         23         24         25
    21  H    0.000000
    22  H    5.823220   0.000000
    23  H    6.250557   1.777127   0.000000
    24  H    7.166370   1.786853   1.778288   0.000000
    25  H    6.713811   2.882280   3.660010   2.435815   0.000000
    26  H    5.684737   3.731877   4.245921   3.653470   1.767419
    27  H    5.106101   2.583867   3.757652   3.240091   1.785268
    28  H    8.911146   7.007269   5.866006   5.922506   6.016751
    29  H    7.773109   5.849111   4.489795   4.990372   5.579523
    30  H    7.671969   5.349299   4.431668   4.324266   4.256950
    31  H    3.766741   5.886362   5.889356   6.344662   5.295274
    32  H    3.648588   4.555582   4.984952   5.155086   3.851204
    33  H    5.581839   4.804668   4.586219   4.574157   3.517653
    34  H    2.467555   3.718419   3.879811   4.832606   4.705967
    35  H    5.361810   5.487524   4.503471   5.455553   5.619147
                   26         27         28         29         30
    26  H    0.000000
    27  H    1.779024   0.000000
    28  H    5.478226   6.852018   0.000000
    29  H    5.127059   6.146555   1.784304   0.000000
    30  H    3.784034   5.090986   1.782666   1.804816   0.000000
    31  H    3.650038   4.405132   5.934418   5.388156   4.900426
    32  H    2.315775   2.726739   6.272036   5.649848   4.834567
    33  H    2.073906   3.519779   3.993141   3.691945   2.605556
    34  H    3.879604   3.404873   6.849590   5.610848   5.478849
    35  H    4.599452   5.369808   3.882116   2.676980   3.287355
                   31         32         33         34         35
    31  H    0.000000
    32  H    1.747378   0.000000
    33  H    2.543535   2.342002   0.000000
    34  H    3.071825   2.499174   3.766961   0.000000
    35  H    3.270501   3.962671   2.916412   3.598887   0.000000
 Stoichiometry    C9H20N2O3S
 Framework group  C1[X(C9H20N2O3S)]
 Deg. of freedom    99
 Full point group                 C1      NOp   1
 Largest Abelian subgroup         C1      NOp   1
 Largest concise Abelian subgroup C1      NOp   1
                         Standard orientation:                         
 ---------------------------------------------------------------------
 Center     Atomic      Atomic             Coordinates (Angstroms)
 Number     Number       Type             X           Y           Z
 ---------------------------------------------------------------------
      1          6           0       -0.691484    1.010919   -0.423137
      2          6           0       -1.435249   -2.441828   -1.272332
      3          6           0       -3.175890   -2.564898    0.510796
      4          6           0       -2.172678    2.937098   -0.801530
      5          6           0       -1.922662    2.096699    1.500664
      6          6           0        2.632791    1.436731   -0.363007
      7          6           0       -1.154930   -1.135486    0.925398
      8          6           0       -0.115847   -0.081172    0.502922
      9          6           0       -2.126858   -1.664328   -0.153596
     10          7           0        1.018709   -0.767840   -0.205380
     11          7           0       -1.546306    1.973873    0.096116
     12          8           0       -0.372760    1.014367   -1.622491
     13          8           0        3.460954   -1.048185   -0.685385
     14          8           0        2.726943   -0.329709    1.609192
     15         16           0        2.582403   -0.265493    0.165897
     16          1           0       -0.777503   -3.219564   -0.870409
     17          1           0       -2.171798   -2.927878   -1.921813
     18          1           0       -0.843789   -1.781917   -1.911179
     19          1           0       -2.710631   -3.441391    0.974697
     20          1           0       -3.723154   -2.019336    1.286936
     21          1           0       -3.908136   -2.918011   -0.223218
     22          1           0       -3.259167    2.848651   -0.707298
     23          1           0       -1.896880    2.773285   -1.846015
     24          1           0       -1.861567    3.944011   -0.507934
     25          1           0       -1.859707    3.148957    1.794474
     26          1           0       -1.278807    1.521076    2.163699
     27          1           0       -2.954378    1.750578    1.611690
     28          1           0        3.651275    1.800421   -0.208477
     29          1           0        2.383600    1.485757   -1.424095
     30          1           0        1.940728    2.025169    0.240315
     31          1           0       -0.631846   -1.985657    1.384570
     32          1           0       -1.765220   -0.700493    1.726838
     33          1           0        0.284134    0.387115    1.407103
     34          1           0       -2.664839   -0.820445   -0.601716
     35          1           0        0.878160   -0.718861   -1.225274
 ---------------------------------------------------------------------
 Rotational constants (GHZ):      0.6273912      0.3912347      0.2990397
 Standard basis: 6-31G(d) (6D, 7F)
 There are   269 symmetry adapted basis functions of A   symmetry.
 Integral buffers will be    131072 words long.
 Raffenetti 2 integral format.
 Two-electron integral symmetry is turned on.
   269 basis functions,   524 primitive gaussians,   269 cartesian basis functions
    64 alpha electrons       64 beta electrons
       nuclear repulsion energy      1296.5908716309 Hartrees.
 NAtoms=   35 NActive=   35 NUniq=   35 SFac= 1.00D+00 NAtFMM=   60 NAOKFM=F Big=F
 One-electron integrals computed using PRISM.
 NBasis=   269 RedAO= T  NBF=   269
 NBsUse=   269 1.00D-06 NBFU=   269
 Harris functional with IExCor=  402 diagonalized for initial guess.
 ExpMin= 1.17D-01 ExpMax= 2.19D+04 ExpMxC= 3.30D+03 IAcc=3 IRadAn=         5 AccDes= 0.00D+00
 HarFok:  IExCor=  402 AccDes= 0.00D+00 IRadAn=         5 IDoV= 1
 ScaDFX=  1.000000  1.000000  1.000000  1.000000
 FoFCou: FMM=F IPFlag=           0 FMFlag=      100000 FMFlg1=           0
         NFxFlg=           0 DoJE=T BraDBF=F KetDBF=T FulRan=T
         Omega=  0.000000  0.000000  1.000000  0.000000  0.000000 ICntrl=     500 IOpCl=  0
         NMat0=    1 NMatS0=    1 NMatT0=    0 NMatD0=    1 NMtDS0=    0 NMtDT0=    0
         I1Cent=           4 NGrid=           0.
 Petite list used in FoFCou.
 Initial guess orbital symmetries:
       Occupied  (A) (A) (A) (A) (A) (A) (A) (A) (A) (A) (A) (A)
                 (A) (A) (A) (A) (A) (A) (A) (A) (A) (A) (A) (A)
                 (A) (A) (A) (A) (A) (A) (A) (A) (A) (A) (A) (A)
                 (A) (A) (A) (A) (A) (A) (A) (A) (A) (A) (A) (A)
                 (A) (A) (A) (A) (A) (A) (A) (A) (A) (A) (A) (A)
                 (A) (A) (A) (A)
       Virtual   (A) (A) (A) (A) (A) (A) (A) (A) (A) (A) (A) (A)
                 (A) (A) (A) (A) (A) (A) (A) (A) (A) (A) (A) (A)
                 (A) (A) (A) (A) (A) (A) (A) (A) (A) (A) (A) (A)
                 (A) (A) (A) (A) (A) (A) (A) (A) (A) (A) (A) (A)
                 (A) (A) (A) (A) (A) (A) (A) (A) (A) (A) (A) (A)
                 (A) (A) (A) (A) (A) (A) (A) (A) (A) (A) (A) (A)
                 (A) (A) (A) (A) (A) (A) (A) (A) (A) (A) (A) (A)
                 (A) (A) (A) (A) (A) (A) (A) (A) (A) (A) (A) (A)
                 (A) (A) (A) (A) (A) (A) (A) (A) (A) (A) (A) (A)
                 (A) (A) (A) (A) (A) (A) (A) (A) (A) (A) (A) (A)
                 (A) (A) (A) (A) (A) (A) (A) (A) (A) (A) (A) (A)
                 (A) (A) (A) (A) (A) (A) (A) (A) (A) (A) (A) (A)
                 (A) (A) (A) (A) (A) (A) (A) (A) (A) (A) (A) (A)
                 (A) (A) (A) (A) (A) (A) (A) (A) (A) (A) (A) (A)
                 (A) (A) (A) (A) (A) (A) (A) (A) (A) (A) (A) (A)
                 (A) (A) (A) (A) (A) (A) (A) (A) (A) (A) (A) (A)
                 (A) (A) (A) (A) (A) (A) (A) (A) (A) (A) (A) (A)
                 (A)
 The electronic state of the initial guess is 1-A.
 Requested convergence on RMS density matrix=1.00D-08 within 128 cycles.
 Requested convergence on MAX density matrix=1.00D-06.
 Requested convergence on             energy=1.00D-06.
 No special actions if energy rises.
 Integral accuracy reduced to 1.0D-05 until final iterations.
 Initial convergence to 1.0D-05 achieved.  Increase integral accuracy.
 SCF Done:  E(RB3LYP) =  -1088.31066788     A.U. after   15 cycles
             Convg  =    0.5504D-08             -V/T =  2.0074
 Calling FoFJK, ICntrl=      2127 FMM=F ISym2X=0 I1Cent= 0 IOpClX= 0 NMat=1 NMatS=1 NMatT=0.
 ***** Axes restored to original set *****
 -------------------------------------------------------------------
 Center     Atomic                   Forces (Hartrees/Bohr)
 Number     Number              X              Y              Z
 -------------------------------------------------------------------
      1        6          -0.018078513   -0.003469736    0.005975567
      2        6          -0.004337694   -0.000727585   -0.004218513
      3        6          -0.000751423    0.000364596    0.004252003
      4        6           0.000326955    0.000424935    0.001207502
      5        6          -0.004290438   -0.006114808   -0.002576299
      6        6          -0.007872424    0.009428153   -0.001943826
      7        6           0.002907514   -0.006195632    0.008206098
      8        6           0.000413627    0.000315224   -0.017066927
      9        6           0.005538177   -0.001108533   -0.001714947
     10        7          -0.004035237   -0.004105947    0.014172654
     11        7           0.008387703    0.003516939   -0.025869363
     12        8           0.008678056    0.001071008    0.009082430
     13        8          -0.005047578   -0.001312494   -0.011822633
     14        8           0.006501475    0.009851598    0.012155767
     15       16           0.004005301   -0.013347912   -0.003079663
     16        1           0.000078006    0.000585072   -0.000508709
     17        1           0.000371791   -0.000745166    0.000771170
     18        1          -0.000309322    0.000480927   -0.001703480
     19        1           0.001006419    0.000044512   -0.000460167
     20        1           0.001922408   -0.000150507    0.001392591
     21        1           0.000342228   -0.000305274   -0.000601826
     22        1          -0.002248120   -0.000966550    0.003134713
     23        1           0.006423498    0.002945232   -0.001810097
     24        1          -0.002923616   -0.000550097    0.002798739
     25        1           0.000183157    0.000281681    0.001828460
     26        1          -0.000539073   -0.000572994   -0.001831775
     27        1           0.003293198    0.001559712    0.005792038
     28        1           0.000095780    0.001162155    0.000292216
     29        1           0.000251498   -0.000795437    0.002086564
     30        1          -0.001515399   -0.000866987    0.000495166
     31        1          -0.003928721    0.002195283   -0.001402526
     32        1          -0.000087367   -0.000085085    0.001437109
     33        1           0.002684594    0.000816108   -0.003280544
     34        1          -0.002431701    0.001213548    0.000935368
     35        1           0.004985239    0.005164060    0.003875139
 -------------------------------------------------------------------
 Cartesian Forces:  Max     0.025869363 RMS     0.005496853

 GradGradGradGradGradGradGradGradGradGradGradGradGradGradGradGradGradGrad
 Berny optimization.
 Internal  Forces:  Max     0.018894916 RMS     0.003747254
 Search for a local minimum.
 Step number   1 out of a maximum of  186
 All quantities printed in internal units (Hartrees-Bohrs-Radians)
 Mixed Optimization -- RFO/linear search
 Second derivative matrix not updated -- first step.
 ITU=  0
     Eigenvalues ---    0.00230   0.00230   0.00245   0.00317   0.00323
     Eigenvalues ---    0.00397   0.00592   0.00893   0.00908   0.00924
     Eigenvalues ---    0.01174   0.01510   0.01845   0.02400   0.02937
     Eigenvalues ---    0.03568   0.04298   0.04469   0.04630   0.04987
     Eigenvalues ---    0.05093   0.05429   0.05454   0.05526   0.05576
     Eigenvalues ---    0.05956   0.06229   0.06342   0.07258   0.07328
     Eigenvalues ---    0.07727   0.07730   0.08330   0.08813   0.09171
     Eigenvalues ---    0.11993   0.12806   0.12907   0.16000   0.16000
     Eigenvalues ---    0.16000   0.16000   0.16000   0.16000   0.16000
     Eigenvalues ---    0.16000   0.16000   0.16000   0.16000   0.16000
     Eigenvalues ---    0.16000   0.16000   0.16000   0.16179   0.17053
     Eigenvalues ---    0.17336   0.18220   0.18255   0.21981   0.23232
     Eigenvalues ---    0.24986   0.24992   0.25000   0.25000   0.25000
     Eigenvalues ---    0.27485   0.28038   0.28233   0.28572   0.29064
     Eigenvalues ---    0.29621   0.32016   0.33821   0.33987   0.34069
     Eigenvalues ---    0.34161   0.34196   0.34209   0.34215   0.34240
     Eigenvalues ---    0.34318   0.34338   0.34353   0.34355   0.34369
     Eigenvalues ---    0.34510   0.34530   0.34532   0.34691   0.34754
     Eigenvalues ---    0.34951   0.37055   0.37209   0.37907   0.42674
     Eigenvalues ---    0.47600   0.86658   0.94925   0.95081
 RFO step:  Lambda=-9.52586619D-03 EMin= 2.30000000D-03
 Linear search not attempted -- first point.
 Iteration  1 RMS(Cart)=  0.07848998 RMS(Int)=  0.00167194
 Iteration  2 RMS(Cart)=  0.00281807 RMS(Int)=  0.00021892
 Iteration  3 RMS(Cart)=  0.00000583 RMS(Int)=  0.00021890
 Iteration  4 RMS(Cart)=  0.00000000 RMS(Int)=  0.00021890
 Variable       Old X    -DE/DX   Delta X   Delta X   Delta X     New X
                                 (Linear)    (Quad)   (Total)
    R1        2.91631   0.00061   0.00000   0.00208   0.00208   2.91840
    R2        2.62368  -0.01889   0.00000  -0.03892  -0.03892   2.58476
    R3        2.34512  -0.01228   0.00000  -0.01402  -0.01402   2.33111
    R4        2.88726   0.00604   0.00000   0.01977   0.01977   2.90703
    R5        2.06927   0.00054   0.00000   0.00155   0.00155   2.07081
    R6        2.07059   0.00065   0.00000   0.00185   0.00185   2.07244
    R7        2.06442   0.00106   0.00000   0.00299   0.00299   2.06741
    R8        2.89869   0.00370   0.00000   0.01232   0.01232   2.91101
    R9        2.07001   0.00109   0.00000   0.00310   0.00310   2.07311
   R10        2.06969   0.00155   0.00000   0.00440   0.00440   2.07409
   R11        2.06979   0.00029   0.00000   0.00082   0.00082   2.07061
   R12        2.75532  -0.00050   0.00000  -0.00132  -0.00132   2.75400
   R13        2.06764   0.00244   0.00000   0.00693   0.00693   2.07457
   R14        2.06478  -0.00313   0.00000  -0.00882  -0.00882   2.05596
   R15        2.06738   0.00232   0.00000   0.00656   0.00656   2.07394
   R16        2.75763  -0.00009   0.00000  -0.00023  -0.00023   2.75740
   R17        2.06797   0.00116   0.00000   0.00330   0.00330   2.07127
   R18        2.05755  -0.00011   0.00000  -0.00030  -0.00030   2.05726
   R19        2.06713   0.00292   0.00000   0.00826   0.00826   2.07538
   R20        3.36978   0.01093   0.00000   0.03844   0.03844   3.40822
   R21        2.06444   0.00093   0.00000   0.00261   0.00261   2.06706
   R22        2.06180  -0.00038   0.00000  -0.00106  -0.00106   2.06074
   R23        2.06076   0.00048   0.00000   0.00133   0.00133   2.06210
   R24        2.90905   0.00468   0.00000   0.01586   0.01586   2.92491
   R25        2.92056   0.00033   0.00000   0.00114   0.00114   2.92169
   R26        2.07633  -0.00207   0.00000  -0.00594  -0.00594   2.07039
   R27        2.07352   0.00136   0.00000   0.00390   0.00390   2.07742
   R28        2.84115  -0.01545   0.00000  -0.04687  -0.04687   2.79428
   R29        2.06735  -0.00009   0.00000  -0.00026  -0.00026   2.06708
   R30        2.07214   0.00218   0.00000   0.00621   0.00621   2.07835
   R31        3.18201   0.00487   0.00000   0.01253   0.01253   3.19454
   R32        1.94774  -0.00811   0.00000  -0.01860  -0.01860   1.92913
   R33        2.74443   0.01194   0.00000   0.01245   0.01245   2.75688
   R34        2.74376   0.01554   0.00000   0.01618   0.01618   2.75994
    A1        2.08984  -0.00456   0.00000  -0.01744  -0.01804   2.07180
    A2        2.07843   0.00275   0.00000   0.01071   0.01011   2.08854
    A3        2.11490   0.00181   0.00000   0.00712   0.00652   2.12142
    A4        1.94397  -0.00005   0.00000  -0.00170  -0.00171   1.94226
    A5        1.93422  -0.00150   0.00000  -0.00861  -0.00862   1.92560
    A6        1.94536   0.00201   0.00000   0.01304   0.01305   1.95841
    A7        1.88209   0.00052   0.00000   0.00084   0.00082   1.88290
    A8        1.89492  -0.00112   0.00000  -0.00703  -0.00703   1.88789
    A9        1.86009   0.00010   0.00000   0.00331   0.00333   1.86341
   A10        1.94199  -0.00041   0.00000  -0.00503  -0.00504   1.93695
   A11        1.93501   0.00248   0.00000   0.01711   0.01709   1.95210
   A12        1.93502  -0.00023   0.00000  -0.00119  -0.00124   1.93378
   A13        1.88672  -0.00115   0.00000  -0.00712  -0.00710   1.87963
   A14        1.88578  -0.00029   0.00000  -0.00635  -0.00638   1.87940
   A15        1.87700  -0.00050   0.00000   0.00212   0.00205   1.87906
   A16        1.89670   0.00498   0.00000   0.03101   0.03078   1.92748
   A17        1.96171  -0.01135   0.00000  -0.06997  -0.06959   1.89213
   A18        1.89721   0.00558   0.00000   0.03419   0.03398   1.93119
   A19        1.89743   0.00245   0.00000   0.01183   0.01218   1.90961
   A20        1.91099  -0.00366   0.00000  -0.01515  -0.01591   1.89509
   A21        1.89943   0.00199   0.00000   0.00841   0.00881   1.90824
   A22        1.90129   0.00089   0.00000   0.00325   0.00291   1.90421
   A23        1.97046  -0.00487   0.00000  -0.03070  -0.03062   1.93984
   A24        1.89053   0.00953   0.00000   0.06005   0.05999   1.95052
   A25        1.88687   0.00048   0.00000  -0.00438  -0.00457   1.88230
   A26        1.90844  -0.00409   0.00000  -0.02000  -0.02045   1.88799
   A27        1.90567  -0.00209   0.00000  -0.00893  -0.00862   1.89705
   A28        1.87777   0.00016   0.00000   0.00440   0.00438   1.88215
   A29        1.90170   0.00011   0.00000  -0.00030  -0.00031   1.90138
   A30        1.91035   0.00137   0.00000   0.00551   0.00550   1.91584
   A31        1.91297   0.00066   0.00000   0.00932   0.00930   1.92227
   A32        1.91108  -0.00047   0.00000  -0.00099  -0.00102   1.91006
   A33        1.94858  -0.00176   0.00000  -0.01713  -0.01713   1.93145
   A34        2.05696   0.00350   0.00000   0.01352   0.01346   2.07042
   A35        1.89999  -0.00454   0.00000  -0.03991  -0.03985   1.86014
   A36        1.88007  -0.00005   0.00000   0.00703   0.00693   1.88699
   A37        1.90327   0.00122   0.00000   0.00705   0.00705   1.91032
   A38        1.87110  -0.00152   0.00000   0.00188   0.00171   1.87281
   A39        1.84035   0.00128   0.00000   0.01164   0.01163   1.85198
   A40        1.97967  -0.00382   0.00000  -0.00931  -0.00962   1.97005
   A41        1.89862  -0.00044   0.00000   0.00642   0.00628   1.90490
   A42        1.90648   0.00323   0.00000   0.02221   0.02220   1.92869
   A43        1.90271   0.00591   0.00000   0.03430   0.03435   1.93706
   A44        1.88928  -0.00095   0.00000  -0.01246  -0.01215   1.87713
   A45        1.88491  -0.00400   0.00000  -0.04344  -0.04324   1.84167
   A46        1.90493   0.00237   0.00000   0.02266   0.02262   1.92755
   A47        1.98304   0.00111   0.00000   0.01038   0.01033   1.99337
   A48        1.89070  -0.00118   0.00000  -0.00937  -0.00939   1.88131
   A49        1.90560  -0.00233   0.00000  -0.00756  -0.00784   1.89776
   A50        1.86848   0.00055   0.00000   0.00353   0.00345   1.87194
   A51        1.90765  -0.00053   0.00000  -0.01992  -0.01992   1.88773
   A52        2.04952   0.00380   0.00000   0.01843   0.01832   2.06784
   A53        1.91938  -0.00098   0.00000   0.00192   0.00177   1.92115
   A54        1.90778  -0.00106   0.00000   0.00239   0.00224   1.91002
   A55        2.08569  -0.00206   0.00000  -0.00794  -0.00794   2.07775
   A56        2.18602   0.00253   0.00000   0.00974   0.00974   2.19576
   A57        2.01104  -0.00047   0.00000  -0.00184  -0.00184   2.00920
   A58        1.81896   0.01391   0.00000   0.05235   0.05280   1.87176
   A59        1.90023  -0.00632   0.00000  -0.03202  -0.03257   1.86766
   A60        1.91160  -0.00735   0.00000  -0.04004  -0.04036   1.87124
   A61        1.84600  -0.00205   0.00000   0.00359   0.00416   1.85017
   A62        1.87385  -0.00294   0.00000  -0.00558  -0.00483   1.86901
   A63        2.09280   0.00666   0.00000   0.02976   0.02878   2.12158
    D1        1.26425  -0.00195   0.00000   0.00992   0.00994   1.27419
    D2       -2.89840   0.00274   0.00000   0.05212   0.05207  -2.84633
    D3       -0.84476  -0.00049   0.00000   0.01619   0.01617  -0.82859
    D4       -1.88423  -0.00078   0.00000   0.07338   0.07343  -1.81080
    D5        0.23631   0.00391   0.00000   0.11557   0.11556   0.35187
    D6        2.28995   0.00068   0.00000   0.07965   0.07966   2.36961
    D7       -3.05518   0.00025   0.00000   0.02011   0.02008  -3.03510
    D8        0.05305   0.00021   0.00000   0.01857   0.01853   0.07157
    D9        0.09345  -0.00094   0.00000  -0.04471  -0.04467   0.04878
   D10       -3.08151  -0.00099   0.00000  -0.04626  -0.04622  -3.12774
   D11       -1.24117   0.00068   0.00000  -0.00079  -0.00091  -1.24208
   D12        0.88992   0.00018   0.00000   0.01320   0.01328   0.90320
   D13        3.01330  -0.00061   0.00000  -0.01208  -0.01204   3.00126
   D14        0.85416   0.00030   0.00000  -0.00665  -0.00675   0.84741
   D15        2.98525  -0.00020   0.00000   0.00735   0.00744   2.99269
   D16       -1.17455  -0.00099   0.00000  -0.01793  -0.01788  -1.19243
   D17        2.92271   0.00075   0.00000   0.00030   0.00018   2.92289
   D18       -1.22938   0.00026   0.00000   0.01429   0.01437  -1.21502
   D19        0.89400  -0.00054   0.00000  -0.01099  -0.01095   0.88304
   D20        1.08852   0.00014   0.00000  -0.00013  -0.00017   1.08835
   D21       -1.08858  -0.00128   0.00000  -0.02314  -0.02313  -1.11171
   D22        3.13136   0.00029   0.00000   0.00256   0.00263   3.13399
   D23       -3.09426   0.00008   0.00000  -0.00097  -0.00104  -3.09530
   D24        1.01183  -0.00134   0.00000  -0.02397  -0.02400   0.98782
   D25       -1.05142   0.00023   0.00000   0.00173   0.00176  -1.04966
   D26       -1.01070   0.00093   0.00000   0.01207   0.01203  -0.99867
   D27        3.09539  -0.00049   0.00000  -0.01094  -0.01094   3.08445
   D28        1.03214   0.00108   0.00000   0.01476   0.01483   1.04697
   D29        2.11922  -0.00079   0.00000  -0.00956  -0.01000   2.10922
   D30       -0.99225  -0.00081   0.00000  -0.00839  -0.00884  -1.00109
   D31        0.01835  -0.00005   0.00000  -0.00103  -0.00105   0.01730
   D32       -3.09312  -0.00007   0.00000   0.00013   0.00010  -3.09302
   D33       -2.08537   0.00088   0.00000   0.00974   0.01021  -2.07517
   D34        1.08634   0.00086   0.00000   0.01090   0.01136   1.09770
   D35        2.35330  -0.00112   0.00000  -0.01965  -0.01975   2.33355
   D36       -0.82040  -0.00119   0.00000  -0.02125  -0.02136  -0.84176
   D37        0.25700   0.00079   0.00000   0.00333   0.00314   0.26014
   D38       -2.91670   0.00072   0.00000   0.00173   0.00153  -2.91517
   D39       -1.85558  -0.00005   0.00000  -0.00732  -0.00702  -1.86260
   D40        1.25391  -0.00012   0.00000  -0.00893  -0.00863   1.24528
   D41       -3.07580  -0.00060   0.00000  -0.00521  -0.00523  -3.08103
   D42       -1.11207   0.00106   0.00000   0.01042   0.00996  -1.10211
   D43        1.20698  -0.00101   0.00000  -0.00762  -0.00713   1.19985
   D44       -1.00312   0.00035   0.00000   0.00823   0.00821  -0.99491
   D45        0.96061   0.00200   0.00000   0.02385   0.02340   0.98401
   D46       -3.00352  -0.00007   0.00000   0.00581   0.00630  -2.99721
   D47        1.13217  -0.00089   0.00000  -0.00963  -0.00966   1.12251
   D48        3.09590   0.00077   0.00000   0.00600   0.00553   3.10143
   D49       -0.86823  -0.00130   0.00000  -0.01205  -0.01156  -0.87980
   D50        0.74356  -0.00011   0.00000   0.00169   0.00171   0.74527
   D51       -1.37468  -0.00124   0.00000  -0.02491  -0.02490  -1.39958
   D52        2.86224   0.00082   0.00000   0.01499   0.01503   2.87727
   D53        2.92165   0.00031   0.00000  -0.01319  -0.01318   2.90847
   D54        0.80341  -0.00082   0.00000  -0.03979  -0.03979   0.76363
   D55       -1.24285   0.00124   0.00000   0.00011   0.00015  -1.24270
   D56       -1.37421  -0.00049   0.00000  -0.01593  -0.01597  -1.39018
   D57        2.79074  -0.00162   0.00000  -0.04253  -0.04258   2.74816
   D58        0.74447   0.00044   0.00000  -0.00263  -0.00265   0.74183
   D59        1.13061  -0.00239   0.00000  -0.04628  -0.04628   1.08432
   D60       -3.02186  -0.00028   0.00000  -0.01553  -0.01563  -3.03749
   D61       -0.98331  -0.00124   0.00000  -0.02687  -0.02683  -1.01014
   D62       -1.04587   0.00004   0.00000  -0.00815  -0.00810  -1.05397
   D63        1.08485   0.00215   0.00000   0.02260   0.02255   1.10740
   D64        3.12340   0.00119   0.00000   0.01126   0.01135   3.13475
   D65       -3.03020  -0.00127   0.00000  -0.02614  -0.02612  -3.05632
   D66       -0.89948   0.00083   0.00000   0.00462   0.00453  -0.89495
   D67        1.13907  -0.00012   0.00000  -0.00673  -0.00667   1.13240
   D68        1.71320   0.00163   0.00000   0.03819   0.03807   1.75127
   D69       -0.48243   0.00087   0.00000   0.01796   0.01780  -0.46463
   D70       -2.40311   0.00043   0.00000   0.05293   0.05321  -2.34990
   D71        1.68444  -0.00034   0.00000   0.03270   0.03294   1.71738
   D72       -0.35407   0.00028   0.00000   0.03260   0.03250  -0.32158
   D73       -2.54970  -0.00048   0.00000   0.01237   0.01223  -2.53748
   D74       -1.10287  -0.00066   0.00000  -0.03194  -0.03188  -1.13474
   D75       -3.10527   0.00129   0.00000  -0.02003  -0.02019  -3.12546
   D76        0.92408  -0.00370   0.00000  -0.05506  -0.05504   0.86905
   D77        1.09847   0.00012   0.00000  -0.01214  -0.01203   1.08644
   D78       -0.90393   0.00207   0.00000  -0.00023  -0.00034  -0.90428
   D79        3.12542  -0.00292   0.00000  -0.03526  -0.03519   3.09023
         Item               Value     Threshold  Converged?
 Maximum Force            0.018895     0.000450     NO 
 RMS     Force            0.003747     0.000300     NO 
 Maximum Displacement     0.368538     0.001800     NO 
 RMS     Displacement     0.079487     0.001200     NO 
 Predicted change in Energy=-5.215646D-03
 GradGradGradGradGradGradGradGradGradGradGradGradGradGradGradGradGradGrad

                          Input orientation:                          
 ---------------------------------------------------------------------
 Center     Atomic      Atomic             Coordinates (Angstroms)
 Number     Number       Type             X           Y           Z
 ---------------------------------------------------------------------
      1          6           0       -1.197045   -1.677404    4.329363
      2          6           0        0.831662   -4.142787    2.626317
      3          6           0        2.259011   -4.496923    4.683472
      4          6           0       -2.781660   -2.173222    6.110802
      5          6           0       -0.671115   -1.058365    6.711704
      6          6           0       -1.571866    1.210162    2.352824
      7          6           0        1.324284   -2.205409    4.273008
      8          6           0        0.204789   -1.212086    3.878417
      9          6           0        1.071348   -3.719117    4.085609
     10          7           0        0.192460   -0.980970    2.417973
     11          7           0       -1.514701   -1.613001    5.658202
     12          8           0       -1.978623   -2.151658    3.501166
     13          8           0        0.046684    0.517397    0.398126
     14          8           0        1.047582    1.404020    2.566928
     15         16           0        0.052936    0.606628    1.854257
     16          1           0        1.626006   -3.771853    1.968849
     17          1           0        0.810900   -5.236302    2.545568
     18          1           0       -0.126278   -3.779745    2.242333
     19          1           0        3.186716   -4.274667    4.141742
     20          1           0        2.421228   -4.246297    5.739649
     21          1           0        2.087649   -5.577337    4.620700
     22          1           0       -2.608291   -2.959916    6.856623
     23          1           0       -3.296591   -2.597022    5.251204
     24          1           0       -3.409467   -1.394868    6.563010
     25          1           0       -1.276668   -0.403326    7.348566
     26          1           0        0.138162   -0.462128    6.293689
     27          1           0       -0.238305   -1.845608    7.343418
     28          1           0       -1.697430    2.215039    1.939376
     29          1           0       -2.335520    0.541826    1.953649
     30          1           0       -1.630686    1.255442    3.441511
     31          1           0        2.216038   -1.911820    3.708272
     32          1           0        1.567259   -2.043230    5.332808
     33          1           0        0.449635   -0.244411    4.325822
     34          1           0        0.177657   -3.991706    4.665786
     35          1           0       -0.521987   -1.561935    1.977305
 ---------------------------------------------------------------------
                    Distance matrix (angstroms):
                    1          2          3          4          5
     1  C    0.000000
     2  C    3.618582   0.000000
     3  C    4.474305   2.528759   0.000000
     4  C    2.435234   5.392302   5.731075   0.000000
     5  C    2.517014   5.335015   4.952075   2.461380   0.000000
     6  C    3.519266   5.874164   7.257985   5.199354   4.995738
     7  C    2.576639   2.589922   2.508630   4.498589   3.353292
     8  C    1.544348   3.248035   3.957031   3.850481   2.969571
     9  C    3.061637   1.538336   1.540442   4.619185   4.124580
    10  N    2.463566   3.232502   4.665301   4.889156   4.380397
    11  N    1.367796   4.593208   4.848505   1.457354   1.459152
    12  O    1.233569   3.553541   4.985544   2.730483   3.634890
    13  O    4.671042   5.224781   6.957153   6.919077   6.546719
    14  O    4.199965   5.551325   6.385017   6.326041   5.118244
    15  S    3.592409   4.874364   6.238385   5.820711   5.185676
    16  H    4.234190   1.095827   2.880208   6.256111   5.927433
    17  H    4.458646   1.096689   2.685952   5.916066   6.083438
    18  H    3.149933   1.094026   3.487564   4.959539   5.260992
    19  H    5.098857   2.803602   1.097045   6.626823   5.642000
    20  H    4.656181   3.497179   1.097559   5.612971   4.546470
    21  H    5.107209   2.759167   1.095719   6.125241   5.692468
    22  H    3.165990   5.579242   5.547576   1.097813   2.718373
    23  H    2.470542   5.130486   5.898868   1.087965   3.375448
    24  H    3.156550   6.405918   6.729565   1.097482   2.762954
    25  H    3.277987   6.381869   6.030032   2.632412   1.096067
    26  H    2.668005   5.241927   4.834290   3.389197   1.088652
    27  H    3.167334   5.354708   4.510141   2.845229   1.098244
    28  H    4.594947   6.876783   8.260382   6.150868   5.877381
    29  H    3.444579   5.694657   7.345109   4.985223   5.288661
    30  H    3.094820   5.989037   7.054212   4.495063   4.119301
    31  H    3.477046   2.839777   2.763262   5.551349   4.252604
    32  H    2.963462   3.503474   2.630735   4.419873   2.807425
    33  H    2.182897   4.269847   4.635257   4.165061   2.758810
    34  H    2.712744   2.147087   2.141866   3.761983   3.675688
    35  H    2.449738   2.985695   4.865330   4.750326   4.763440
                    6          7          8          9         10
     6  C    0.000000
     7  C    4.872466   0.000000
     8  C    3.369157   1.547793   0.000000
     9  C    5.855503   1.546094   2.660650   0.000000
    10  N    2.813921   2.494280   1.478670   3.324290   0.000000
    11  N    4.347302   3.213961   2.506992   3.687333   3.716577
    12  O    3.575748   3.392319   2.406741   3.478624   2.693960
    13  O    2.630679   4.905166   3.889542   5.709249   2.519154
    14  O    2.635323   4.001907   3.045376   5.343547   2.538030
    15  S    1.803553   3.920999   2.725436   4.972742   1.690476
    16  H    5.932479   2.802487   3.495528   2.188858   3.169510
    17  H    6.875436   3.526177   4.282309   2.177477   4.301929
    18  H    5.196259   2.950645   3.062556   2.199011   2.822337
    19  H    7.478481   2.787061   4.282597   2.187823   4.773404
    20  H    7.562296   2.742178   4.193235   2.199077   5.163651
    21  H    8.037752   3.474696   4.811607   2.184530   5.437862
    22  H    6.224783   4.765448   4.453991   4.668474   5.609104
    23  H    5.086249   4.739484   4.007773   4.657961   4.776222
    24  H    5.280967   5.320666   4.505917   5.622931   5.506952
    25  H    5.258129   4.412654   3.858852   5.211002   5.177138
    26  H    4.609899   2.920456   2.529904   4.044061   3.910667
    27  H    6.001845   3.463894   3.550199   3.979767   5.019280
    28  H    1.093839   5.840973   4.373043   6.891057   3.743690
    29  H    1.090496   5.130389   3.637871   5.857273   2.987506
    30  H    1.091214   4.626092   3.106211   5.697551   3.061540
    31  H    5.092370   1.095604   2.136283   2.172331   2.574145
    32  H    5.414699   1.099324   2.159254   2.147098   3.393336
    33  H    3.177258   2.147863   1.093854   3.538052   2.061200
    34  H    5.955674   2.158676   2.889112   1.099815   3.757314
    35  H    2.987940   3.015465   2.065145   3.411319   1.020854
                   11         12         13         14         15
    11  N    0.000000
    12  O    2.271163   0.000000
    13  O    5.885993   4.566681   0.000000
    14  O    5.022319   4.761677   2.547861   0.000000
    15  S    4.674851   3.801010   1.458876   1.460498   0.000000
    16  H    5.304339   4.238676   4.833125   5.242322   4.653899
    17  H    5.312741   4.267274   6.188747   6.644573   5.932305
    18  H    4.276758   2.768846   4.679364   5.324916   4.407152
    19  H    5.611367   5.621231   6.843854   6.269244   6.235399
    20  H    4.736288   5.362556   7.540763   6.624134   6.652515
    21  H    5.456125   5.433526   7.690349   7.351127   7.073520
    22  H    2.108633   3.508398   7.800819   7.128172   6.695224
    23  H    2.075831   2.235626   6.665542   6.487335   5.746473
    24  H    2.111018   3.463370   7.321716   6.608156   6.177909
    25  H    2.092201   4.283911   7.134956   5.615398   5.742411
    26  H    2.111945   3.890177   5.977081   4.265947   4.567062
    27  H    2.126793   4.229099   7.341805   5.918484   6.019067
    28  H    5.340126   4.646106   2.880863   2.930301   2.378658
    29  H    4.363569   3.126826   2.845196   3.544695   2.391401
    30  H    3.627001   3.425339   3.552530   2.821363   2.403105
    31  H    4.220182   4.206614   4.643734   3.696316   3.802494
    32  H    3.128811   3.992487   5.763683   4.450133   4.627659
    33  H    2.739871   3.195949   4.021134   2.483661   2.643912
    34  H    3.083375   3.064582   6.209838   5.854557   5.391189
    35  H    3.812754   2.188999   2.672230   3.407065   2.246851
                   16         17         18         19         20
    16  H    0.000000
    17  H    1.772459   0.000000
    18  H    1.773515   1.758354   0.000000
    19  H    2.722150   3.019440   3.850796   0.000000
    20  H    3.882834   3.711524   4.351858   1.772028   0.000000
    21  H    3.241173   2.460196   3.713414   1.770395   1.770590
    22  H    6.517580   5.954661   5.303223   6.533089   5.310222
    23  H    6.032084   5.581912   4.528026   6.788127   5.970941
    24  H    7.218889   6.979108   5.927496   7.593775   6.542597
    25  H    6.979531   7.126316   6.228741   6.722559   5.570590
    26  H    5.645547   6.106858   5.243090   5.334792   4.454131
    27  H    6.006003   5.967998   5.456602   5.280325   3.925366
    28  H    6.847553   7.885536   6.204655   8.415556   8.553028
    29  H    5.856770   6.605837   4.862106   7.647316   7.738641
    30  H    6.168345   6.993339   5.390212   7.367482   7.208923
    31  H    2.614088   3.791896   3.335351   2.590976   3.101351
    32  H    3.782567   4.305403   3.928688   3.003430   2.397559
    33  H    4.402502   5.312136   4.143814   4.875291   4.679870
    34  H    3.069124   2.538767   2.451617   3.067430   2.500321
    35  H    3.081831   3.949745   2.268371   5.079191   5.479374
                   21         22         23         24         25
    21  H    0.000000
    22  H    5.822551   0.000000
    23  H    6.186263   1.784046   0.000000
    24  H    7.175228   1.782546   1.782905   0.000000
    25  H    6.747613   2.924275   3.645726   2.479735   0.000000
    26  H    5.724051   3.754843   4.176371   3.678071   1.765777
    27  H    5.171950   2.663735   3.780885   3.296736   1.777189
    28  H    9.068487   7.196467   6.056521   6.110686   6.024302
    29  H    8.007606   6.031232   4.652945   5.113741   5.578495
    30  H    7.867870   5.512526   4.570745   4.464522   4.259333
    31  H    3.779554   5.855320   5.765346   6.329540   5.265576
    32  H    3.642502   4.538452   4.895955   5.167356   3.852335
    33  H    5.586605   4.809349   4.519438   4.606650   3.484589
    34  H    2.482807   3.691322   3.789229   4.817726   4.710503
    35  H    5.470027   5.487692   4.414549   5.421636   5.546383
                   26         27         28         29         30
    26  H    0.000000
    27  H    1.776985   0.000000
    28  H    5.431083   6.915314   0.000000
    29  H    5.095388   6.256817   1.790811   0.000000
    30  H    3.770118   5.174951   1.783729   1.794372   0.000000
    31  H    3.619883   4.386625   5.956106   5.460381   4.989990
    32  H    2.337839   2.709552   6.348734   5.773466   4.968409
    33  H    2.004225   3.484678   4.043996   3.741986   2.712803
    34  H    3.887100   3.456657   7.033701   5.850184   5.683442
    35  H    4.502948   5.381089   3.955836   2.777638   3.363142
                   31         32         33         34         35
    31  H    0.000000
    32  H    1.754223   0.000000
    33  H    2.506352   2.344963   0.000000
    34  H    3.065576   2.484446   3.772502   0.000000
    35  H    3.258136   3.981958   2.862770   3.690693   0.000000
 Stoichiometry    C9H20N2O3S
 Framework group  C1[X(C9H20N2O3S)]
 Deg. of freedom    99
 Full point group                 C1      NOp   1
 Largest Abelian subgroup         C1      NOp   1
 Largest concise Abelian subgroup C1      NOp   1
                         Standard orientation:                         
 ---------------------------------------------------------------------
 Center     Atomic      Atomic             Coordinates (Angstroms)
 Number     Number       Type             X           Y           Z
 ---------------------------------------------------------------------
      1          6           0       -0.683140    1.023691   -0.459211
      2          6           0       -1.600087   -2.374912   -1.297563
      3          6           0       -3.260566   -2.474797    0.607024
      4          6           0       -2.115337    2.967426   -0.777127
      5          6           0       -1.754942    2.154081    1.517863
      6          6           0        2.816224    1.378712   -0.342417
      7          6           0       -1.187955   -1.095737    0.916382
      8          6           0       -0.113090   -0.081280    0.456809
      9          6           0       -2.218020   -1.603453   -0.118798
     10          7           0        0.996532   -0.765268   -0.241305
     11          7           0       -1.464085    1.999562    0.096366
     12          8           0       -0.477524    0.975517   -1.674568
     13          8           0        3.443799   -1.151225   -0.697443
     14          8           0        2.688349   -0.384570    1.611915
     15         16           0        2.583404   -0.338924    0.155908
     16          1           0       -0.938319   -3.174635   -0.946358
     17          1           0       -2.387728   -2.833208   -1.907739
     18          1           0       -1.024944   -1.723401   -1.962119
     19          1           0       -2.793993   -3.370409    1.035623
     20          1           0       -3.750235   -1.930092    1.424433
     21          1           0       -4.041539   -2.805912   -0.086549
     22          1           0       -3.204748    2.928859   -0.647162
     23          1           0       -1.865209    2.723288   -1.807418
     24          1           0       -1.772019    3.985057   -0.551231
     25          1           0       -1.625331    3.205714    1.798277
     26          1           0       -1.073560    1.560470    2.124912
     27          1           0       -2.785900    1.860444    1.756697
     28          1           0        3.858759    1.645952   -0.147001
     29          1           0        2.598147    1.471124   -1.406881
     30          1           0        2.159875    2.024975    0.242646
     31          1           0       -0.649973   -1.948797    1.344414
     32          1           0       -1.752220   -0.644159    1.744752
     33          1           0        0.332026    0.357147    1.354678
     34          1           0       -2.749608   -0.732390   -0.528990
     35          1           0        0.869417   -0.697460   -1.251941
 ---------------------------------------------------------------------
 Rotational constants (GHZ):      0.6276637      0.3846816      0.2971586
 Standard basis: 6-31G(d) (6D, 7F)
 There are   269 symmetry adapted basis functions of A   symmetry.
 Integral buffers will be    131072 words long.
 Raffenetti 2 integral format.
 Two-electron integral symmetry is turned on.
   269 basis functions,   524 primitive gaussians,   269 cartesian basis functions
    64 alpha electrons       64 beta electrons
       nuclear repulsion energy      1292.2467868387 Hartrees.
 NAtoms=   35 NActive=   35 NUniq=   35 SFac= 1.00D+00 NAtFMM=   60 NAOKFM=F Big=F
 One-electron integrals computed using PRISM.
 NBasis=   269 RedAO= T  NBF=   269
 NBsUse=   269 1.00D-06 NBFU=   269
 Initial guess read from the read-write file.
 B after Tr=     0.000000    0.000000    0.000000
         Rot=    1.000000    0.000000    0.000000    0.000000 Ang=   0.00 deg.
 Initial guess orbital symmetries:
       Occupied  (A) (A) (A) (A) (A) (A) (A) (A) (A) (A) (A) (A)
                 (A) (A) (A) (A) (A) (A) (A) (A) (A) (A) (A) (A)
                 (A) (A) (A) (A) (A) (A) (A) (A) (A) (A) (A) (A)
                 (A) (A) (A) (A) (A) (A) (A) (A) (A) (A) (A) (A)
                 (A) (A) (A) (A) (A) (A) (A) (A) (A) (A) (A) (A)
                 (A) (A) (A) (A)
       Virtual   (A) (A) (A) (A) (A) (A) (A) (A) (A) (A) (A) (A)
                 (A) (A) (A) (A) (A) (A) (A) (A) (A) (A) (A) (A)
                 (A) (A) (A) (A) (A) (A) (A) (A) (A) (A) (A) (A)
                 (A) (A) (A) (A) (A) (A) (A) (A) (A) (A) (A) (A)
                 (A) (A) (A) (A) (A) (A) (A) (A) (A) (A) (A) (A)
                 (A) (A) (A) (A) (A) (A) (A) (A) (A) (A) (A) (A)
                 (A) (A) (A) (A) (A) (A) (A) (A) (A) (A) (A) (A)
                 (A) (A) (A) (A) (A) (A) (A) (A) (A) (A) (A) (A)
                 (A) (A) (A) (A) (A) (A) (A) (A) (A) (A) (A) (A)
                 (A) (A) (A) (A) (A) (A) (A) (A) (A) (A) (A) (A)
                 (A) (A) (A) (A) (A) (A) (A) (A) (A) (A) (A) (A)
                 (A) (A) (A) (A) (A) (A) (A) (A) (A) (A) (A) (A)
                 (A) (A) (A) (A) (A) (A) (A) (A) (A) (A) (A) (A)
                 (A) (A) (A) (A) (A) (A) (A) (A) (A) (A) (A) (A)
                 (A) (A) (A) (A) (A) (A) (A) (A) (A) (A) (A) (A)
                 (A) (A) (A) (A) (A) (A) (A) (A) (A) (A) (A) (A)
                 (A) (A) (A) (A) (A) (A) (A) (A) (A) (A) (A) (A)
                 (A)
 Harris functional with IExCor=  402 diagonalized for initial guess.
 ExpMin= 1.17D-01 ExpMax= 2.19D+04 ExpMxC= 3.30D+03 IAcc=3 IRadAn=         5 AccDes= 0.00D+00
 HarFok:  IExCor=  402 AccDes= 0.00D+00 IRadAn=         5 IDoV= 1
 ScaDFX=  1.000000  1.000000  1.000000  1.000000
 FoFCou: FMM=F IPFlag=           0 FMFlag=      100000 FMFlg1=           0
         NFxFlg=           0 DoJE=T BraDBF=F KetDBF=T FulRan=T
         Omega=  0.000000  0.000000  1.000000  0.000000  0.000000 ICntrl=     500 IOpCl=  0
         NMat0=    1 NMatS0=    1 NMatT0=    0 NMatD0=    1 NMtDS0=    0 NMtDT0=    0
         I1Cent=           4 NGrid=           0.
 Petite list used in FoFCou.
 Requested convergence on RMS density matrix=1.00D-08 within 128 cycles.
 Requested convergence on MAX density matrix=1.00D-06.
 Requested convergence on             energy=1.00D-06.
 No special actions if energy rises.
 Integral accuracy reduced to 1.0D-05 until final iterations.
 Initial convergence to 1.0D-05 achieved.  Increase integral accuracy.
 SCF Done:  E(RB3LYP) =  -1088.31505170     A.U. after   12 cycles
             Convg  =    0.8083D-08             -V/T =  2.0074
 Calling FoFJK, ICntrl=      2127 FMM=F ISym2X=0 I1Cent= 0 IOpClX= 0 NMat=1 NMatS=1 NMatT=0.
 ***** Axes restored to original set *****
 -------------------------------------------------------------------
 Center     Atomic                   Forces (Hartrees/Bohr)
 Number     Number              X              Y              Z
 -------------------------------------------------------------------
      1        6          -0.000890464   -0.005155254    0.003383706
      2        6          -0.000386836   -0.000026942   -0.000076770
      3        6          -0.000942846    0.000235304   -0.000187341
      4        6          -0.001441428   -0.001217137   -0.000377494
      5        6          -0.001135177    0.000971053   -0.002192109
      6        6          -0.003768835    0.001125253    0.000990522
      7        6           0.001199157   -0.003242060    0.002406909
      8        6          -0.000091428    0.005600353   -0.006204206
      9        6           0.000855039   -0.000144759   -0.000078817
     10        7          -0.003314575   -0.000093978    0.003806097
     11        7           0.002469318    0.002044185    0.001942711
     12        8           0.001861871    0.002684143   -0.002753078
     13        8          -0.000358544   -0.001912062   -0.003166063
     14        8           0.003712746    0.002071617    0.004640068
     15       16          -0.000016439   -0.001799859   -0.002070239
     16        1           0.000378690    0.000050011   -0.000123754
     17        1           0.000378030    0.000006497    0.000352034
     18        1           0.000064849    0.000955349    0.000785268
     19        1           0.000213039    0.000017739   -0.000170874
     20        1          -0.000184125    0.000287471   -0.000452312
     21        1           0.000100967   -0.000138395   -0.000207165
     22        1           0.000285994    0.000582563    0.000089941
     23        1          -0.000436652   -0.000249026   -0.000237686
     24        1           0.000581675    0.000132939    0.000328090
     25        1          -0.000014641    0.000018503    0.000448903
     26        1           0.000378085    0.000027141    0.000863336
     27        1          -0.000511541   -0.000448827   -0.000451706
     28        1           0.001558476   -0.000944374   -0.000388794
     29        1          -0.000757353   -0.000515396    0.000067560
     30        1          -0.000142150   -0.000527936    0.000676365
     31        1          -0.000167117    0.000766759   -0.000784623
     32        1          -0.000837768    0.000435293   -0.000700897
     33        1           0.001656873   -0.000827545    0.001317098
     34        1          -0.000405912    0.000111719    0.000085906
     35        1           0.000109021   -0.000880343   -0.001560587
 -------------------------------------------------------------------
 Cartesian Forces:  Max     0.006204206 RMS     0.001678664

[...]
 .00000094,0.00000430,0.00000539,0.00001165,0.00001857,0.00004781,-0.00
 002042,0.00001039,0.00003865,-0.00001766,0.05109559,0.00225849,-0.3206
 9754,0.00001979,-0.00004440,0.00009563,0.00004378,-0.00001213,-0.00011
 192,-0.00000487,0.00001182,-0.00002323,0.00030193,-0.00057786,0.000565
 46,0.00010226,-0.00031742,-0.00024337,-0.00073118,0.00067360,-0.000686
 07,0.00078303,-0.00003586,0.00179727,-0.00047420,0.00052972,0.00181889
 ,-0.00149773,-0.00031245,-0.00515383,-0.00001610,0.00000337,0.00000311
 ,-0.00000371,0.00000158,0.00000432,0.00001120,-0.00000348,-0.00002511,
 -0.00000593,0.00000040,-0.00000052,0.00000111,-0.00000090,0.00000051,-
 0.00000283,0.00000469,-0.00000230,-0.00000860,0.00000550,-0.00001365,-
 0.00002058,-0.00003103,0.00002171,0.00000508,0.00001789,0.00000251,-0.
 00001213,0.00001001,-0.00004038,-0.00001805,0.00000669,0.00000032,-0.0
 0000915,-0.00000825,-0.00002039,0.00184610,-0.00141818,-0.00908978,0.0
 0334950,0.00162718,-0.01158558,-0.05532111,-0.00320825,0.34218926,0.00
 064142,0.00520836,-0.00178849,0.00010172,0.00054805,0.00038554,0.00080
 806,0.00089643,-0.00036281,0.00034237,-0.00018093,0.00021598,-0.000204
 84,-0.00020635,-0.00042887,0.00001590,-0.00037628,0.00020519,-0.224510
 91,-0.05689457,0.10809104,-0.02576658,-0.00234911,0.01162778,-0.006969
 62,-0.00309100,0.00400285,0.00275556,-0.00239635,0.00117481,-0.0006764
 7,-0.00044051,0.00048451,-0.00090884,-0.00122672,-0.00039040,0.0001175
 1,-0.00008815,0.00005182,0.00023157,-0.00015268,-0.00011837,-0.0002153
 3,0.00118078,-0.00029515,0.00003316,-0.00029735,-0.00074795,0.00023805
 ,0.00012519,-0.00016524,0.00001341,0.00000341,0.00004388,0.00061539,-0
 .00029218,0.00021583,0.00003684,-0.00005511,-0.00004538,0.00016347,-0.
 00000385,-0.00021422,-0.00016230,-0.00007202,0.00004297,0.00004650,-0.
 00001236,-0.00005918,-0.00002968,0.00003880,0.00004669,0.00006713,0.00
 003937,0.00007719,-0.00000129,0.00009130,-0.00004705,0.00001748,-0.000
 03759,0.00014662,0.00017208,-0.00002726,-0.00005315,0.00001398,-0.0000
 1829,0.00003520,0.00003740,-0.00006753,-0.00003587,0.24503306,-0.00002
 936,-0.00460399,0.00224389,0.00008304,0.00137702,0.00159338,-0.0015951
 8,0.00142027,0.00027389,-0.00027904,0.00005966,-0.00009988,0.00012024,
 -0.00008382,0.00025250,-0.00003182,0.00005863,-0.00006190,-0.05823895,
 -0.06546047,0.03352251,0.02196984,0.00262801,-0.00993978,-0.02719410,-
 0.01083540,0.01695239,-0.00054851,0.00102869,-0.00091937,0.00052417,0.
 00042680,-0.00068803,0.00130887,0.00167266,0.00032004,-0.00010785,0.00
 000168,-0.00005273,-0.00034481,0.00003161,-0.00008191,0.00048955,-0.00
 006070,-0.00002798,0.00041009,0.00019555,-0.00095070,0.00036305,0.0001
 9270,0.00002359,0.00007546,0.00000447,-0.00010328,0.00101405,-0.000221
 37,-0.00027636,0.00010820,-0.00005723,0.00000125,0.00023896,0.00033699
 ,-0.00033005,0.00013356,0.00007127,-0.00008718,-0.00001402,-0.00001004
 ,0.00006492,0.00002858,0.00000515,-0.00004211,0.00003387,0.00000230,-0
 .00004513,0.00010591,0.00003187,-0.00007554,-0.00005989,0.00002037,-0.
 00009235,-0.00004889,0.00000780,0.00003791,-0.00002120,0.00001672,-0.0
 0002255,-0.00004729,0.00005564,0.00002364,0.05937983,0.07659564,-0.000
 64696,0.00190287,-0.00116458,-0.00114609,0.00003080,0.00124080,0.00015
 428,0.00023814,-0.00001372,0.00001873,-0.00006756,0.00013751,-0.000162
 24,-0.00036537,-0.00020261,-0.00000241,-0.00011194,0.00001179,0.110366
 40,0.03178279,-0.11508410,-0.00970907,0.00033487,0.00275757,-0.0057895
 7,-0.00192937,0.00327312,-0.00088613,-0.00056784,0.00104572,-0.0002242
 4,-0.00027638,0.00040245,-0.00022349,-0.00071526,0.00018412,0.00006366
 ,-0.00023735,0.00007053,-0.00013993,-0.00019062,-0.00020763,-0.0001556
 6,0.00100104,0.00023465,0.00036015,0.00013213,0.00004820,0.00009959,0.
 00017257,0.00005235,-0.00003620,-0.00006577,-0.00008212,-0.00014332,0.
 00038780,0.00018636,0.00016128,0.00002220,-0.00008570,-0.00030106,0.00
 003653,-0.00002688,-0.00005796,-0.00001483,0.00000534,0.00003861,-0.00
 000080,-0.00003069,0.00000765,0.00001454,0.00000386,0.00021109,0.00001
 443,0.00004117,0.00023245,0.00028554,-0.00016172,-0.00008588,-0.000025
 08,0.00022761,0.00004408,-0.00001439,-0.00002260,-0.00001490,-0.000003
 55,0.00000567,0.00002488,-0.00001236,-0.00001644,-0.11822712,-0.037756
 87,0.12201689,0.00042734,0.00001835,-0.00156955,0.00038248,-0.00154522
 ,0.00064163,0.00028114,0.00119538,0.00086433,-0.00013167,0.00001015,0.
 00024295,-0.00077373,-0.00011809,0.00010259,0.00000821,0.00024260,-0.0
 0002468,-0.06092968,-0.00573642,-0.04754885,-0.00508319,-0.00176520,-0
 .02200275,-0.00230308,-0.00241242,-0.00934971,-0.00143378,0.00371036,-
 0.00160816,-0.00046515,-0.00022281,0.00064538,-0.00006506,0.00001603,0
 .00059155,0.00010983,0.00042310,-0.00045276,0.00013370,0.00021734,0.00
 017184,-0.00055146,-0.00125617,-0.00049431,0.00011467,-0.00002152,-0.0
 0035092,0.00025292,-0.00008440,-0.00056375,0.00011294,0.00013904,0.000
 19533,-0.00000669,-0.00000751,0.00014460,0.00036943,0.00023612,0.00006
 442,-0.00030648,0.00001222,0.00006500,-0.00003283,-0.00000962,0.000008
 53,0.00007325,0.00002709,-0.00003478,-0.00000324,-0.00000458,-0.000011
 14,0.00030294,0.00005114,0.00009976,-0.00015800,0.00090253,0.00014932,
 -0.00013258,-0.00002367,0.00037159,-0.00009192,0.00002535,0.00003868,0
 .00002545,0.00000475,-0.00001052,-0.00004658,0.00002590,0.00000574,0.0
 0707300,0.00368967,0.02674280,0.06143535,-0.00045787,-0.00009317,-0.00
 004577,-0.00064391,-0.00671426,0.00104390,-0.00077148,0.00084033,-0.00
 182885,-0.00001154,-0.00002488,-0.00016432,0.00070574,0.00022823,-0.00
 047445,-0.00001371,-0.00050843,0.00011647,-0.00535089,-0.04927764,-0.0
 2704820,0.00307563,0.00028601,0.01969763,-0.00535264,-0.00641830,-0.03
 313252,0.00309969,-0.00397829,0.00303571,0.00009744,-0.00000894,0.0000
 2208,0.00012586,0.00036113,-0.00005660,-0.00015445,-0.00049838,0.00056
 031,-0.00021062,-0.00032710,-0.00025466,0.00091325,0.00189475,0.000293
 19,0.00022130,0.00011127,0.00026855,-0.00056824,-0.00055649,-0.0021068
 3,-0.00013686,0.00007992,0.00010781,0.00009377,-0.00003264,0.00012462,
 0.00052811,-0.00049565,0.00085687,-0.00018981,0.00039065,0.00027486,0.
 00000025,0.00000026,-0.00000283,-0.00003745,-0.00002485,0.00002025,0.0
 0002314,0.00000227,0.00000446,-0.00004923,-0.00012798,0.00002566,0.000
 53442,-0.00062641,-0.00031281,-0.00006069,-0.00006398,0.00010311,0.000
 17647,-0.00004884,-0.00004637,-0.00004434,-0.00000155,0.00000617,0.000
 03262,-0.00000852,-0.00000981,0.00224288,0.00070062,0.00790717,0.00228
 530,0.06321379,0.00026333,0.00053630,-0.00176208,-0.00029417,-0.001702
 60,0.00161635,-0.00009623,0.00118010,0.00017871,0.00003186,-0.00001282
 ,0.00017304,0.00042199,-0.00124202,-0.00056473,0.00005071,0.00044890,-
 0.00016901,-0.04768527,-0.02596207,-0.29019481,-0.00011705,-0.00069047
 ,-0.00703522,-0.00078913,-0.00076275,-0.00703901,-0.00151083,0.0028106
 0,-0.00075789,-0.00033783,-0.00029944,0.00064632,-0.00001396,0.0000190
 4,0.00072650,0.00003263,0.00025248,-0.00020335,0.00018758,0.00038238,0
 .00020772,-0.00063290,-0.00200478,0.00037101,-0.00002142,0.00021975,0.
 00039606,-0.00027082,-0.00022493,-0.00044659,-0.00006547,0.00003073,-0
 .00008661,-0.00005047,-0.00003982,-0.00006050,0.00047574,-0.00033032,0
 .00081331,0.00007317,0.00005576,0.00050533,-0.00004916,-0.00002810,0.0
 0001199,0.00006094,0.00002662,-0.00003478,-0.00001322,0.00003232,0.000
 00792,0.00046997,0.00006856,0.00001030,0.00057397,0.00017914,-0.000333
 87,-0.00002894,-0.00012910,0.00028271,-0.00016661,0.00003524,0.0000389
 8,0.00003281,-0.00000438,-0.00000476,-0.00001283,-0.00000133,0.0000064
 1,-0.00350338,-0.00200956,-0.01560101,0.05302007,0.02917282,0.31711277
 ,-0.00391227,-0.02557872,-0.01691302,-0.00013545,-0.00010729,-0.000270
 79,0.00060345,0.00107996,0.00022699,-0.00029130,0.00051051,-0.00001783
 ,-0.00025700,-0.00011598,0.00019102,-0.00005864,-0.00018221,-0.0001458
 1,0.00506267,0.02440965,0.00852824,-0.06717180,-0.06533961,-0.02841514
 ,-0.00386584,0.00079295,-0.00114909,0.00052207,0.00133464,-0.00148084,
 -0.00025631,0.00128640,0.00053191,-0.00752933,-0.00011574,0.00104324,-
 0.00020881,0.00015310,0.00026424,-0.00101110,-0.00033378,0.00047416,0.
 00151857,-0.00099707,-0.00121694,0.00002344,-0.00001966,0.00004813,0.0
 0004836,0.00003927,0.00008864,0.00000850,0.00001100,0.00012546,-0.0000
 2302,-0.00002411,0.00006076,-0.00000775,-0.00001113,-0.00008610,-0.000
 35208,0.00029522,-0.00018544,0.00017796,0.00004373,0.00003993,0.000159
 96,0.00008798,-0.00018678,-0.00016859,-0.00004808,0.00003590,0.0000919
 4,0.00008782,0.00013739,0.00090786,-0.00014618,0.00119560,0.00026126,0
 .00013596,0.00000085,0.00006383,0.00003204,0.00008469,-0.00002600,-0.0
 0003236,0.00015010,-0.00041790,0.00008245,-0.00001491,0.00065160,-0.00
 051442,0.00050294,0.00133728,-0.00029591,0.00017081,0.07430949,-0.0016
 9718,-0.00433172,-0.00392681,0.00003059,0.00027442,0.00016574,-0.00055
 998,-0.00097638,-0.00034848,-0.00010528,0.00001114,0.00033950,-0.00077
 339,-0.00025120,-0.00082008,-0.00015585,-0.00025943,-0.00009174,-0.003
 51587,-0.02219342,-0.00742057,-0.06505921,-0.24526746,-0.10473715,0.00
 418697,-0.00002420,0.00130778,0.00153399,0.00713885,0.00146617,-0.0006
 5927,0.00010471,0.00040810,-0.00019115,0.00011333,0.00124008,-0.000422
 77,0.00004138,-0.00044725,-0.00053226,-0.00249874,0.00066651,0.0019302
 3,0.00064604,0.00340580,-0.00000237,-0.00002077,-0.00004785,-0.0000145
 5,-0.00004218,-0.00002379,-0.00001011,0.00000212,-0.00001678,0.0000391
 3,-0.00000532,-0.00002793,0.00002156,-0.00000786,0.00009618,0.00031304
 ,-0.00024898,0.00016097,0.00003745,-0.00002513,-0.00000041,0.00010982,
 0.00004526,-0.00008709,-0.00001453,-0.00001397,-0.00002306,0.00048067,
 0.00024821,-0.00021215,0.00066064,0.00101765,0.00070852,0.00027330,0.0
 0013262,-0.00005454,0.00003762,-0.00001951,-0.00001004,-0.00015195,0.0
 0005332,0.00002256,-0.00000178,0.00004909,0.00001469,-0.00015143,0.000
 83872,-0.00032337,-0.00060983,0.00082176,0.00024442,0.06434862,0.26466
 761,-0.00259675,0.00881301,0.00666661,-0.00009251,0.00009138,-0.000115
 14,0.00006269,0.00025580,0.00016701,0.00017807,-0.00024521,-0.00002671
 ,0.00145076,0.00096103,-0.00212811,0.00011107,0.00098500,-0.00024149,0
 .00097134,0.00728339,0.00277911,-0.02624711,-0.09411377,-0.09591510,-0
 .00126326,0.00069647,0.00036546,-0.01185723,-0.02772443,-0.02675555,-0
 .00042544,-0.00095815,-0.00076558,0.00310080,-0.00035953,0.00054052,0.
 00048901,0.00085330,0.00095549,0.00162600,0.00040143,0.00329268,-0.004
 54721,-0.00622541,-0.00513584,-0.00007425,0.00003397,0.00003653,0.0000
 5601,-0.00002530,0.00010317,0.00014042,0.00007484,-0.00001967,-0.00002
 983,0.00001419,-0.00000362,0.00000226,-0.00001218,-0.00002668,-0.00008
 216,0.00007975,-0.00006091,-0.00002230,-0.00002929,0.00003704,-0.00010
 130,-0.00005698,0.00000688,0.00007788,-0.00001767,-0.00002038,0.000122
 38,0.00003989,-0.00021490,0.00104707,0.00076885,-0.00356681,-0.0002773
 6,-0.00013013,0.00008216,-0.00026466,0.00008876,0.00008190,0.00025402,
 -0.00010104,0.00001078,-0.00007423,0.00001936,0.00009377,0.00003728,-0
 .00041246,-0.00003607,0.00015841,0.00095260,0.00047532,0.03631691,0.10
 619454,0.12577604,-0.00034449,-0.00038363,0.00092413,0.00516132,0.0016
 4134,-0.00405286,-0.02380767,-0.00497783,0.01304082,0.00011273,-0.0000
 0691,-0.00003003,-0.00009084,-0.00024864,-0.00001533,0.00001070,-0.000
 02516,0.00001831,-0.00547439,-0.00254403,0.00330532,0.00035121,0.00002
 530,-0.00039213,-0.21008558,-0.05001822,0.10672345,0.00011129,0.000000
 08,-0.00004971,-0.00009496,0.00082950,-0.00046193,-0.00000193,0.000552
 52,-0.00032524,0.00004231,-0.00002593,0.00001797,0.00006429,-0.0000365
 6,0.00003339,-0.00013709,0.00011804,-0.00007390,0.00098791,-0.00006490
 ,-0.00188202,0.00005536,0.00026534,0.00054826,0.00095480,0.00024807,0.
 00038295,-0.00321107,0.00327364,-0.00245253,0.00075248,-0.00059409,-0.
 00037639,0.00118056,0.00020636,0.00022798,0.00007490,-0.00001737,-0.00
 007177,0.00000372,-0.00000735,0.00002581,-0.00000714,0.00003068,0.0000
 0077,-0.00000980,0.00004030,-0.00000813,0.00001678,0.00002650,-0.00000
 240,0.00000599,-0.00006315,-0.00014740,0.00002145,0.00000020,-0.000008
 54,0.00000555,-0.00000618,0.00001455,-0.00000095,-0.00001635,-0.000006
 84,0.00058539,-0.00102151,-0.00081227,0.00010559,-0.00012694,-0.000353
 19,0.00011521,-0.00008155,-0.00001382,0.23263191,0.00042064,-0.0018340
 2,0.00083931,0.00566310,0.00216763,-0.00427165,0.01740230,0.00375006,-
 0.00974167,0.00034176,0.00003788,-0.00012983,-0.00025995,-0.00031512,-
 0.00026654,0.00001742,-0.00004828,0.00003508,-0.02869507,-0.01162167,0
 .01780506,-0.00086960,0.00170769,0.00031601,-0.04962075,-0.06497789,0.
 03165689,0.00043977,-0.00011559,0.00010387,0.00009233,0.00060026,-0.00
 040138,0.00047353,0.00046702,-0.00000569,0.00006429,-0.00002351,0.0000
 3697,0.00012324,-0.00003066,0.00002552,-0.00024785,0.00023660,-0.00013
 124,-0.00008916,0.00031113,-0.00150268,0.00038289,0.00023604,0.0004182
 0,-0.00013670,0.00023218,0.00052716,0.00360755,-0.00159747,0.00137533,
 -0.00088022,0.00048613,0.00002599,-0.00051045,0.00077026,-0.00061141,0
 .00002471,-0.00004517,0.00000284,0.00002930,-0.00000035,-0.00000320,-0
 .00004406,0.00001404,0.00004038,0.00003810,0.00005733,0.00003847,0.000
 02839,0.00004300,0.00000310,0.00003856,-0.00007676,-0.00003627,0.00003
 885,-0.00000184,-0.00001473,0.00001256,-0.00001303,0.00002158,0.000003
 12,-0.00002574,-0.00001035,-0.00125585,-0.00646416,-0.00157910,0.00052
 620,0.00134678,-0.00028102,-0.00000929,0.00025761,-0.00023809,0.052976
 64,0.07455658,0.00062505,0.00127473,0.00101711,0.02586416,0.00835937,-
 0.02147954,-0.01074035,-0.00231213,0.00596369,-0.00001404,0.00000011,-
 0.00000053,0.00013395,0.00006445,0.00011335,-0.00000429,0.00002494,-0.
 00000681,-0.00447514,-0.00146653,0.00236069,0.00043151,0.00042263,-0.0
 0014527,0.10623202,0.03166997,-0.11801373,-0.00025619,0.00018007,0.000
 13854,0.00003270,-0.00019725,-0.00023878,-0.00034905,-0.00116664,-0.00
 029197,-0.00005926,0.00005509,0.00009877,-0.00001905,0.00004097,0.0000
 5914,0.00011681,-0.00015504,-0.00011191,-0.00147737,-0.00226942,-0.006
 10829,-0.00002964,-0.00042581,0.00094073,-0.00007182,0.00058630,0.0013
 1577,-0.00246440,0.00126126,0.00009699,0.00039812,-0.00057771,0.000763
 36,0.00063809,-0.00042391,0.00020442,0.00001732,0.00000154,0.00004541,
 -0.00007153,0.00003626,0.00000508,0.00000866,-0.00003683,-0.00002223,-
 0.00003385,-0.00001623,-0.00004912,-0.00002380,-0.00004523,0.00000536,
 -0.00000882,-0.00001921,-0.00006576,-0.00002736,-0.00000354,0.00001176
 ,-0.00000484,0.00001042,-0.00002772,-0.00000853,0.00002960,0.00001937,
 -0.00051015,-0.00127327,0.00078527,-0.00025160,0.00058259,0.00075321,-
 0.00017412,0.00008321,-0.00000074,-0.11377208,-0.03412928,0.13204672,0
 .00217353,0.00227812,0.00564196,0.00011070,-0.00065655,-0.00026105,-0.
 00003700,0.00003302,0.00017117,-0.00042130,-0.00026103,-0.00001564,0.0
 0060951,0.00026583,0.00037951,-0.00045660,-0.00000804,-0.00025469,-0.0
 0028923,-0.00063775,-0.00109643,0.00003030,0.00327671,0.00395654,0.000
 01889,0.00018219,-0.00074802,-0.14715587,-0.16615006,-0.13724565,0.000
 37686,-0.00064037,-0.00313316,-0.00230250,-0.00090523,-0.00267223,-0.0
 0095110,0.00100212,0.00134026,0.00293929,0.00316367,0.00044100,0.00238
 746,0.01054873,0.00207737,-0.00104358,0.00051860,0.00018050,0.00011304
 ,-0.00046514,0.00052460,0.00149600,-0.00006434,-0.00021958,-0.00007011
 ,0.00001882,-0.00003192,0.00008246,-0.00002932,0.00009997,-0.00000809,
 0.00001955,-0.00001492,0.00005504,0.00007549,-0.00015938,-0.00020029,-
 0.00008710,0.00020323,0.00013710,-0.00001480,-0.00009771,-0.00012858,-
 0.00011744,-0.00023113,-0.00008951,-0.00005934,-0.00008345,-0.00014555
 ,-0.00001987,-0.00027113,-0.00024309,-0.00022888,-0.00011782,-0.000929
 66,0.00070702,-0.00023284,-0.00001081,0.00008729,0.00007049,-0.0003662
 2,0.00001989,-0.00026406,-0.00003040,0.00032071,0.00014730,-0.00017025
 ,0.00070668,0.00176703,-0.00008552,-0.00012630,0.00034889,0.14460510,0
 .00012558,0.00063578,0.00186834,0.00215979,-0.00117869,0.00041982,-0.0
 0000129,-0.00040081,-0.00044120,0.00000603,0.00019085,0.00012452,0.000
 04252,0.00011145,-0.00012195,0.00085854,0.00229630,0.00000743,-0.00010
 244,0.00049587,0.00004601,0.00484022,0.00871633,0.00132464,-0.00010481
 ,0.00059970,0.00107678,-0.13403998,-0.19886938,-0.11340762,-0.00071437
 ,-0.00035157,-0.00055786,-0.00059899,-0.00272888,0.00052696,0.00239951
 ,0.00334982,0.00091338,0.00050078,-0.00533725,0.00120158,-0.02038428,-
 0.02562245,-0.01621555,0.00003978,-0.00011070,-0.00002525,-0.00054655,
 0.00024629,-0.00042199,-0.00111289,-0.00237397,0.00015719,0.00000012,0
 .00002331,0.00004713,-0.00018128,0.00007330,-0.00020685,0.00006530,-0.
 00011000,0.00004786,-0.00002192,-0.00002038,0.00005750,-0.00002335,0.0
 0001101,0.00000663,-0.00006512,-0.00003896,0.00001921,-0.00002118,-0.0
 0001628,0.00001110,-0.00005913,-0.00002632,-0.00009210,-0.00004373,-0.
 00004600,0.00000917,-0.00062293,0.00034770,0.00028157,0.00127378,-0.00
 035067,0.00011160,-0.00008476,0.00005582,0.00009280,-0.00006095,0.0000
 1634,-0.00000561,0.00005888,-0.00044144,0.00003034,-0.00085977,-0.0002
 7758,0.00204210,0.00003181,-0.00008696,-0.00016547,0.14724709,0.221218
 41,-0.00368359,-0.00332465,-0.00535483,-0.00052772,-0.00036476,-0.0003
 4738,0.00005467,0.00003516,-0.00006544,0.00023160,0.00021060,0.0001350
 7,-0.00064924,-0.00038156,-0.00038423,0.00011795,0.00067683,-0.0007647
 7,-0.00001781,0.00006670,-0.00045423,-0.01833604,-0.02481820,-0.018657
 04,-0.00053731,0.00041717,0.00000456,-0.11408122,-0.10420262,-0.147720
 74,-0.00038779,0.00025877,0.00195281,-0.00015862,0.00081436,0.00494730
 ,-0.00048760,-0.00119731,-0.00287296,-0.00050469,0.00541041,0.00065713
 ,0.00796087,0.00190603,0.01162428,0.00038200,-0.00010124,0.00001756,0.
 00029773,-0.00010092,-0.00000910,0.00005958,0.00041113,0.00099904,0.00
 004935,-0.00001646,0.00001495,-0.00000228,-0.00001261,0.00000292,-0.00
 000401,0.00001158,0.00001087,-0.00003585,-0.00005635,0.00010896,0.0002
 0846,0.00008425,-0.00013817,-0.00009331,0.00001885,0.00009955,0.000140
 14,0.00012856,0.00009195,0.00023362,0.00016239,0.00008165,0.00019467,0
 .00004763,0.00014654,-0.00022241,0.00013049,0.00008421,-0.00018585,0.0
 0021440,0.00029838,0.00004346,-0.00018948,-0.00013999,0.00010758,0.000
 03909,0.00000486,-0.00005107,0.00030720,-0.00003976,0.00003892,0.00209
 435,-0.00643719,0.00004482,0.00008238,-0.00018233,0.12980098,0.1212378
 0,0.16228557\\-0.00002448,-0.00001605,-0.00001779,-0.00000661,-0.00000
 461,-0.00000251,-0.00001008,0.00000302,0.00000097,0.00001046,0.0000021
 6,-0.00001322,-0.00000252,0.00000200,-0.00000622,0.00001985,0.00000603
 ,-0.00000894,0.00000641,0.00000964,0.00000322,0.00002960,-0.00000301,-
 0.00001549,0.00001193,-0.00001495,-0.00000272,-0.00001572,0.00002131,0
 .00000372,-0.00000771,0.00001544,0.00001513,0.00000552,0.00000573,0.00
 001789,0.00000193,0.00000499,-0.00001367,0.00000653,0.00000508,-0.0000
 0162,-0.00000503,-0.00002844,0.00003082,-0.00000045,-0.00000007,-0.000
 00086,0.00000056,0.00000189,0.00000230,0.00000205,0.00000225,0.0000021
 9,-0.00000036,-0.00000129,-0.00000133,-0.00000107,-0.00000021,-0.00000
 213,0.00000059,-0.00000144,-0.00000073,-0.00000205,-0.00000167,0.00000
 147,-0.00000465,0.00000100,0.00000002,0.00000252,0.00000139,0.00000579
 ,0.00000076,-0.00000173,0.00000175,-0.00000212,0.00000056,0.00000926,0
 .00000156,-0.00000129,0.00000047,-0.00000350,-0.00000032,-0.00000261,-
 0.00000321,-0.00000216,0.00000271,-0.00000295,-0.00000049,0.00000145,-
 0.00000035,-0.00000048,-0.00000199,-0.00000157,-0.00000432,-0.00000515
 ,-0.00000368,-0.00000098,-0.00000635,-0.00000348,0.00000242,0.00000254
 ,0.00000130,-0.00000140,0.00000165\\\@


 BLESSED ARE THOSE WHO NOUGHT EXPECT,
 FOR THEY SHALL NOT BE DISAPPOINTED..  WALCOT - ODE TO PITT
 Job cpu time:  0 days  3 hours 21 minutes 30.9 seconds.
 File lengths (MBytes):  RWF=    332 Int=      0 D2E=      0 Chk=      6 Scr=      1
 Normal termination of Gaussian 09 at Fri Feb 16 21:52:34 2018.
