 Entering Gaussian System, Link 0=g09
 Initial command:
 /home/fb_chem/chemsoft/lx24-amd64/Gaussian_09_C.01_NBO_3.1_64_istanbul-64/g09/l1.exe /local/2659145.1.parallel_long/Gau-21313.inp -scrdir=/local/2659145.1.parallel_long/
 Entering Link 1 = /home/fb_chem/chemsoft/lx24-amd64/Gaussian_09_C.01_NBO_3.1_64_istanbul-64/g09/l1.exe PID=     21314.
  
 Copyright (c) 1988,1990,1992,1993,1995,1998,2003,2009,2011,
            Gaussian, Inc.  All Rights Reserved.
  
 This is part of the Gaussian(R) 09 program.  It is based on
 the Gaussian(R) 03 system (copyright 2003, Gaussian, Inc.),
 the Gaussian(R) 98 system (copyright 1998, Gaussian, Inc.),
 the Gaussian(R) 94 system (copyright 1995, Gaussian, Inc.),
 the Gaussian 92(TM) system (copyright 1992, Gaussian, Inc.),
 the Gaussian 90(TM) system (copyright 1990, Gaussian, Inc.),
 the Gaussian 88(TM) system (copyright 1988, Gaussian, Inc.),
 the Gaussian 86(TM) system (copyright 1986, Carnegie Mellon
 University), and the Gaussian 82(TM) system (copyright 1983,
 Carnegie Mellon University). Gaussian is a federally registered
 trademark of Gaussian, Inc.
  
 This software contains proprietary and confidential information,
 including trade secrets, belonging to Gaussian, Inc.
  
 This software is provided under written license and may be
 used, copied, transmitted, or stored only in accord with that
 written license.
  
 The following legend is applicable only to US Government
 contracts under FAR:
  
                    RESTRICTED RIGHTS LEGEND
  
 Use, reproduction and disclosure by the US Government is
 subject to restrictions as set forth in subparagraphs (a)
 and (c) of the Commercial Computer Software - Restricted
 Rights clause in FAR 52.227-19.
  
 Gaussian, Inc.
 340 Quinnipiac St., Bldg. 40, Wallingford CT 06492
  
  
 ---------------------------------------------------------------
 Warning -- This program may not be used in any manner that
 competes with the business of Gaussian, Inc. or will provide
 assistance to any competitor of Gaussian, Inc.  The licensee
 of this program is prohibited from giving any competitor of
 Gaussian, Inc. access to this program.  By using this program,
 the user acknowledges that Gaussian, Inc. is engaged in the
 business of creating and licensing software in the field of
 computational chemistry and represents and warrants to the
 licensee that it is not a competitor of Gaussian, Inc. and that
 it will not use this program in any manner prohibited above.
 ---------------------------------------------------------------
  

 Cite this work as:
 Gaussian 09, Revision C.01,
 M. J. Frisch, G. W. Trucks, H. B. Schlegel, G. E. Scuseria, 
 M. A. Robb, J. R. Cheeseman, G. Scalmani, V. Barone, B. Mennucci, 
 G. A. Petersson, H. Nakatsuji, M. Caricato, X. Li, H. P. Hratchian, 
 A. F. Izmaylov, J. Bloino, G. Zheng, J. L. Sonnenberg, M. Hada, 
 M. Ehara, K. Toyota, R. Fukuda, J. Hasegawa, M. Ishida, T. Nakajima, 
 Y. Honda, O. Kitao, H. Nakai, T. Vreven, J. A. Montgomery, Jr., 
 J. E. Peralta, F. Ogliaro, M. Bearpark, J. J. Heyd, E. Brothers, 
 K. N. Kudin, V. N. Staroverov, T. Keith, R. Kobayashi, J. Normand, 
 K. Raghavachari, A. Rendell, J. C. Burant, S. S. Iyengar, J. Tomasi, 
 M. Cossi, N. Rega, J. M. Millam, M. Klene, J. E. Knox, J. B. Cross, 
 V. Bakken, C. Adamo, J. Jaramillo, R. Gomperts, R. E. Stratmann, 
 O. Yazyev, A. J. Austin, R. Cammi, C. Pomelli, J. W. Ochterski, 
 R. L. Martin, K. Morokuma, V. G. Zakrzewski, G. A. Voth, 
 P. Salvador, J. J. Dannenberg, S. Dapprich, A. D. Daniels, 
 O. Farkas, J. B. Foresman, J. V. Ortiz, J. Cioslowski, 
 and D. J. Fox, Gaussian, Inc., Wallingford CT, 2010.
 
 ******************************************
 Gaussian 09:  AM64L-G09RevC.01 23-Sep-2011
                24-Aug-2018 
 ******************************************
 %nprocs=8
 Will use up to    8 processors via shared memory.
 %chk=frag48-conf0.chk
 ---------------------------------------------------------
 #B3LYP/6-31G* Integral=(Grid=UltraFine) freq Opt pop=none
 ---------------------------------------------------------
 1/14=-1,18=20,19=15,26=3,38=1/1,3;
 2/9=110,12=2,17=6,18=5,40=1/2;
 3/5=1,6=6,7=1,11=2,16=1,25=1,30=1,71=1,74=-5,75=-5/1,2,3;
 4//1;
 5/5=2,38=5/2;
 7//1,2,3,16;
 1/14=-1,18=20,19=15/3(2);
 2/9=110/2;
 99//99;
 2/9=110/2;
 3/5=1,6=6,7=1,11=2,16=1,25=1,30=1,71=1,74=-5,75=-5/1,2,3;
 4/5=5,16=3/1;
 5/5=2,38=5/2;
 7//1,2,3,16;
 1/14=-1,18=20,19=15/3(-5);
 2/9=110/2;
 99/9=1/99;
 -----------------------------
 Optimization for frag48-conf0
 -----------------------------
 Charge =  0 Multiplicity = 1
 Symbolic Z-Matrix:
 C                     1.05023   0.09217  -0.01885 
 N                     2.52871  -0.07405  -0.09916 
 C                     2.98985  -1.04942   0.9114 
 S                     3.03773  -0.36506  -1.69615 
 O                     2.57998  -1.68144  -2.06748 
 O                     2.70424   0.80957  -2.47108 
 N                     4.72283  -0.389    -1.4948 
 C                     5.43516  -0.58572  -2.73197 
 C                     5.87563   0.51514  -3.47487 
 C                     6.44668   0.32594  -4.7392 
 C                     6.57936  -0.9624   -5.2548 
 Cl                    7.23459  -1.19282  -6.82942 
 C                     6.16109  -2.06362  -4.51011 
 C                     5.57568  -1.873    -3.25378 
 H                     0.75521   0.36141   1.00084 
 H                     0.53947  -0.83914  -0.28712 
 H                     0.70933   0.89702  -0.67635 
 H                     2.61419  -0.75744   1.89931 
 H                     4.08023  -1.04814   0.9809 
 H                     2.6272   -2.05664   0.69108 
 H                     4.98561   0.48582  -1.04348 
 H                     5.75342   1.52766  -3.09957 
 H                     6.76459   1.18531  -5.32469 
 H                     6.26691  -3.06918  -4.90873 
 H                     5.21413  -2.73252  -2.69538 
 

 GradGradGradGradGradGradGradGradGradGradGradGradGradGradGradGradGradGrad
 Berny optimization.
 Initialization pass.
                           ----------------------------
                           !    Initial Parameters    !
                           ! (Angstroms and Degrees)  !
 --------------------------                            --------------------------
 ! Name  Definition              Value          Derivative Info.                !
 --------------------------------------------------------------------------------
 ! R1    R(1,2)                  1.49           estimate D2E/DX2                !
 ! R2    R(1,15)                 1.0951         estimate D2E/DX2                !
 ! R3    R(1,16)                 1.0955         estimate D2E/DX2                !
 ! R4    R(1,17)                 1.0938         estimate D2E/DX2                !
 ! R5    R(2,3)                  1.4782         estimate D2E/DX2                !
 ! R6    R(2,4)                  1.7012         estimate D2E/DX2                !
 ! R7    R(3,18)                 1.0965         estimate D2E/DX2                !
 ! R8    R(3,19)                 1.0926         estimate D2E/DX2                !
 ! R9    R(3,20)                 1.093          estimate D2E/DX2                !
 ! R10   R(4,5)                  1.4423         estimate D2E/DX2                !
 ! R11   R(4,6)                  1.4462         estimate D2E/DX2                !
 ! R12   R(4,7)                  1.6973         estimate D2E/DX2                !
 ! R13   R(7,8)                  1.4411         estimate D2E/DX2                !
 ! R14   R(7,21)                 1.0188         estimate D2E/DX2                !
 ! R15   R(8,9)                  1.3992         estimate D2E/DX2                !
 ! R16   R(8,14)                 1.3961         estimate D2E/DX2                !
 ! R17   R(9,10)                 1.4001         estimate D2E/DX2                !
 ! R18   R(9,22)                 1.0867         estimate D2E/DX2                !
 ! R19   R(10,11)                1.394          estimate D2E/DX2                !
 ! R20   R(10,23)                1.0874         estimate D2E/DX2                !
 ! R21   R(11,12)                1.721          estimate D2E/DX2                !
 ! R22   R(11,13)                1.3936         estimate D2E/DX2                !
 ! R23   R(13,14)                1.3991         estimate D2E/DX2                !
 ! R24   R(13,24)                1.0868         estimate D2E/DX2                !
 ! R25   R(14,25)                1.0869         estimate D2E/DX2                !
 ! A1    A(2,1,15)             110.1779         estimate D2E/DX2                !
 ! A2    A(2,1,16)             110.7685         estimate D2E/DX2                !
 ! A3    A(2,1,17)             111.0371         estimate D2E/DX2                !
 ! A4    A(15,1,16)            108.1442         estimate D2E/DX2                !
 ! A5    A(15,1,17)            107.149          estimate D2E/DX2                !
 ! A6    A(16,1,17)            109.4528         estimate D2E/DX2                !
 ! A7    A(1,2,3)              110.2618         estimate D2E/DX2                !
 ! A8    A(1,2,4)              111.5053         estimate D2E/DX2                !
 ! A9    A(3,2,4)              115.8184         estimate D2E/DX2                !
 ! A10   A(2,3,18)             109.4714         estimate D2E/DX2                !
 ! A11   A(2,3,19)             110.7337         estimate D2E/DX2                !
 ! A12   A(2,3,20)             111.5152         estimate D2E/DX2                !
 ! A13   A(18,3,19)            106.5155         estimate D2E/DX2                !
 ! A14   A(18,3,20)            108.2608         estimate D2E/DX2                !
 ! A15   A(19,3,20)            110.1843         estimate D2E/DX2                !
 ! A16   A(2,4,5)              107.6286         estimate D2E/DX2                !
 ! A17   A(2,4,6)              107.1619         estimate D2E/DX2                !
 ! A18   A(2,4,7)              100.843          estimate D2E/DX2                !
 ! A19   A(5,4,6)              122.016          estimate D2E/DX2                !
 ! A20   A(5,4,7)              109.4372         estimate D2E/DX2                !
 ! A21   A(6,4,7)              107.696          estimate D2E/DX2                !
 ! A22   A(4,7,8)              113.0071         estimate D2E/DX2                !
 ! A23   A(4,7,21)             107.2484         estimate D2E/DX2                !
 ! A24   A(8,7,21)             111.7166         estimate D2E/DX2                !
 ! A25   A(7,8,9)              120.2659         estimate D2E/DX2                !
 ! A26   A(7,8,14)             119.7685         estimate D2E/DX2                !
 ! A27   A(9,8,14)             119.6903         estimate D2E/DX2                !
 ! A28   A(8,9,10)             120.1            estimate D2E/DX2                !
 ! A29   A(8,9,22)             120.9495         estimate D2E/DX2                !
 ! A30   A(10,9,22)            118.9217         estimate D2E/DX2                !
 ! A31   A(9,10,11)            119.8476         estimate D2E/DX2                !
 ! A32   A(9,10,23)            119.9112         estimate D2E/DX2                !
 ! A33   A(11,10,23)           120.227          estimate D2E/DX2                !
 ! A34   A(10,11,12)           119.8932         estimate D2E/DX2                !
 ! A35   A(10,11,13)           120.2696         estimate D2E/DX2                !
 ! A36   A(12,11,13)           119.8269         estimate D2E/DX2                !
 ! A37   A(11,13,14)           119.8518         estimate D2E/DX2                !
 ! A38   A(11,13,24)           120.389          estimate D2E/DX2                !
 ! A39   A(14,13,24)           119.7455         estimate D2E/DX2                !
 ! A40   A(8,14,13)            120.2232         estimate D2E/DX2                !
 ! A41   A(8,14,25)            120.2428         estimate D2E/DX2                !
 ! A42   A(13,14,25)           119.5239         estimate D2E/DX2                !
 ! D1    D(15,1,2,3)            54.6284         estimate D2E/DX2                !
 ! D2    D(15,1,2,4)          -175.248          estimate D2E/DX2                !
 ! D3    D(16,1,2,3)           -64.9882         estimate D2E/DX2                !
 ! D4    D(16,1,2,4)            65.1354         estimate D2E/DX2                !
 ! D5    D(17,1,2,3)           173.1774         estimate D2E/DX2                !
 ! D6    D(17,1,2,4)           -56.699          estimate D2E/DX2                !
 ! D7    D(1,2,3,18)           -52.8886         estimate D2E/DX2                !
 ! D8    D(1,2,3,19)          -170.033          estimate D2E/DX2                !
 ! D9    D(1,2,3,20)            66.8881         estimate D2E/DX2                !
 ! D10   D(4,2,3,18)           179.3262         estimate D2E/DX2                !
 ! D11   D(4,2,3,19)            62.1819         estimate D2E/DX2                !
 ! D12   D(4,2,3,20)           -60.8971         estimate D2E/DX2                !
 ! D13   D(1,2,4,5)            -69.5191         estimate D2E/DX2                !
 ! D14   D(1,2,4,6)             63.3508         estimate D2E/DX2                !
 ! D15   D(1,2,4,7)            175.8745         estimate D2E/DX2                !
 ! D16   D(3,2,4,5)             57.6472         estimate D2E/DX2                !
 ! D17   D(3,2,4,6)           -169.4829         estimate D2E/DX2                !
 ! D18   D(3,2,4,7)            -56.9592         estimate D2E/DX2                !
 ! D19   D(2,4,7,8)           -178.3088         estimate D2E/DX2                !
 ! D20   D(2,4,7,21)           -54.7524         estimate D2E/DX2                !
 ! D21   D(5,4,7,8)             68.4516         estimate D2E/DX2                !
 ! D22   D(5,4,7,21)          -167.992          estimate D2E/DX2                !
 ! D23   D(6,4,7,8)            -66.1935         estimate D2E/DX2                !
 ! D24   D(6,4,7,21)            57.3629         estimate D2E/DX2                !
 ! D25   D(4,7,8,9)             92.99           estimate D2E/DX2                !
 ! D26   D(4,7,8,14)           -80.9653         estimate D2E/DX2                !
 ! D27   D(21,7,8,9)           -28.0656         estimate D2E/DX2                !
 ! D28   D(21,7,8,14)          157.9791         estimate D2E/DX2                !
 ! D29   D(7,8,9,10)          -173.554          estimate D2E/DX2                !
 ! D30   D(7,8,9,22)             4.4727         estimate D2E/DX2                !
 ! D31   D(14,8,9,10)            0.406          estimate D2E/DX2                !
 ! D32   D(14,8,9,22)          178.4327         estimate D2E/DX2                !
 ! D33   D(7,8,14,13)          174.3638         estimate D2E/DX2                !
 ! D34   D(7,8,14,25)           -4.4767         estimate D2E/DX2                !
 ! D35   D(9,8,14,13)            0.3734         estimate D2E/DX2                !
 ! D36   D(9,8,14,25)         -178.467          estimate D2E/DX2                !
 ! D37   D(8,9,10,11)           -0.1994         estimate D2E/DX2                !
 ! D38   D(8,9,10,23)          178.4325         estimate D2E/DX2                !
 ! D39   D(22,9,10,11)        -178.2659         estimate D2E/DX2                !
 ! D40   D(22,9,10,23)           0.366          estimate D2E/DX2                !
 ! D41   D(9,10,11,12)         178.0406         estimate D2E/DX2                !
 ! D42   D(9,10,11,13)          -0.7921         estimate D2E/DX2                !
 ! D43   D(23,10,11,12)         -0.5869         estimate D2E/DX2                !
 ! D44   D(23,10,11,13)       -179.4196         estimate D2E/DX2                !
 ! D45   D(10,11,13,14)          1.569          estimate D2E/DX2                !
 ! D46   D(10,11,13,24)       -179.7793         estimate D2E/DX2                !
 ! D47   D(12,11,13,14)       -177.2644         estimate D2E/DX2                !
 ! D48   D(12,11,13,24)          1.3873         estimate D2E/DX2                !
 ! D49   D(11,13,14,8)          -1.3595         estimate D2E/DX2                !
 ! D50   D(11,13,14,25)        177.4893         estimate D2E/DX2                !
 ! D51   D(24,13,14,8)         179.9801         estimate D2E/DX2                !
 ! D52   D(24,13,14,25)         -1.1711         estimate D2E/DX2                !
 --------------------------------------------------------------------------------
 Trust Radius=3.00D-01 FncErr=1.00D-07 GrdErr=1.00D-06
 Number of steps in this run=    129 maximum allowed number of steps=    150.
 GradGradGradGradGradGradGradGradGradGradGradGradGradGradGradGradGradGrad

                          Input orientation:                          
 ---------------------------------------------------------------------
 Center     Atomic      Atomic             Coordinates (Angstroms)
 Number     Number       Type             X           Y           Z
 ---------------------------------------------------------------------
      1          6           0        1.050231    0.092172   -0.018846
      2          7           0        2.528708   -0.074050   -0.099156
      3          6           0        2.989849   -1.049423    0.911397
      4         16           0        3.037733   -0.365064   -1.696146
      5          8           0        2.579980   -1.681440   -2.067481
      6          8           0        2.704242    0.809567   -2.471081
      7          7           0        4.722832   -0.388997   -1.494800
      8          6           0        5.435165   -0.585722   -2.731970
      9          6           0        5.875630    0.515139   -3.474871
     10          6           0        6.446679    0.325940   -4.739196
     11          6           0        6.579363   -0.962404   -5.254802
     12         17           0        7.234594   -1.192822   -6.829422
     13          6           0        6.161086   -2.063623   -4.510106
     14          6           0        5.575675   -1.872999   -3.253781
     15          1           0        0.755209    0.361410    1.000843
     16          1           0        0.539466   -0.839144   -0.287119
     17          1           0        0.709327    0.897017   -0.676348
     18          1           0        2.614193   -0.757435    1.899310
     19          1           0        4.080227   -1.048136    0.980895
     20          1           0        2.627203   -2.056640    0.691077
     21          1           0        4.985612    0.485820   -1.043479
     22          1           0        5.753416    1.527655   -3.099573
     23          1           0        6.764585    1.185312   -5.324686
     24          1           0        6.266906   -3.069180   -4.908730
     25          1           0        5.214127   -2.732518   -2.695382
 ---------------------------------------------------------------------
                    Distance matrix (angstroms):
                    1          2          3          4          5
     1  C    0.000000
     2  N    1.489957   0.000000
     3  C    2.435304   1.478249   0.000000
     4  S    2.640561   1.701227   2.696279   0.000000
     5  O    3.111710   2.541778   3.072646   1.442315   0.000000
     6  O    3.043659   2.537246   3.870215   1.446201   2.526549
     7  N    3.987224   2.619388   3.037955   1.697254   2.567136
     8  C    5.200791   3.954872   4.412336   2.620935   3.129572
     9  C    5.950418   4.790040   5.478588   3.462987   4.203215
    10  C    7.173423   6.086088   6.765390   4.621532   5.110675
    11  C    7.687565   6.616469   7.135418   5.056085   5.164406
    12  Cl   9.288784   8.288154   8.829423   6.682017   6.676845
    13  C    7.137206   6.050542   6.362236   4.534183   4.351644
    14  C    5.899690   4.740452   4.971266   3.337851   3.227723
    15  H    1.095123   2.131882   2.644251   3.607136   4.113106
    16  H    1.095537   2.139575   2.735879   2.907136   2.835991
    17  H    1.093754   2.141557   3.392689   2.838012   3.476066
    18  H    2.616703   2.113810   1.096516   3.641517   4.073130
    19  H    3.388313   2.126633   1.092592   2.952953   3.456069
    20  H    2.758301   2.136547   1.092950   2.954454   2.784358
    21  H    4.085590   2.691018   3.187723   2.223558   3.395977
    22  H    5.802709   4.686865   5.510582   3.595404   4.629709
    23  H    7.874054   6.843596   7.624395   5.427651   6.028148
    24  H    7.817851   6.787999   6.977993   5.297216   4.857153
    25  H    5.699189   4.584683   4.559504   3.367493   2.904782
                    6          7          8          9         10
     6  O    0.000000
     7  N    2.542515   0.000000
     8  C    3.077797   1.441079   0.000000
     9  C    3.339458   2.463146   1.399217   0.000000
    10  C    4.402735   3.742846   2.425541   1.400147   0.000000
    11  C    5.089749   4.232390   2.795669   2.417960   1.394018
    12  Cl   6.597635   5.950906   4.516153   4.002116   2.701203
    13  C    4.935850   3.736980   2.423411   2.793423   2.417449
    14  C    4.006733   2.454306   1.396105   2.417035   2.792927
    15  H    4.006724   4.746933   6.060771   6.802526   8.083449
    16  H    3.489153   4.377404   5.478082   6.361642   7.488229
    17  H    2.684847   4.293241   5.362615   5.887975   7.053373
    18  H    4.643697   4.012741   5.425507   6.413910   7.741539
    19  H    4.154580   2.641301   3.979327   5.051846   6.340948
    20  H    4.268527   3.456986   4.665351   5.875496   7.053578
    21  H    2.710628   1.018847   2.049708   2.589336   3.977261
    22  H    3.195014   2.703878   2.168589   1.086726   2.147812
    23  H    4.977010   4.616842   3.409706   2.158978   1.087374
    24  H    5.803394   4.606784   3.405530   3.880256   3.404100
    25  H    4.346976   2.678593   2.158455   3.404772   3.879501
                   11         12         13         14         15
    11  C    0.000000
    12  Cl   1.721002   0.000000
    13  C    1.393633   2.699989   0.000000
    14  C    2.416745   3.999983   1.399070   0.000000
    15  H    8.649067  10.281592   8.091654   6.806710   0.000000
    16  H    7.821344   9.367580   7.136916   5.935768   1.773900
    17  H    7.673136   9.209064   7.292789   6.164211   1.761235
    18  H    8.182048   9.885770   7.440914   6.047248   2.348378
    19  H    6.718404   8.424489   5.959218   4.566097   3.611505
    20  H    7.222908   8.861836   6.288138   4.928399   3.073643
    21  H    4.729973   6.430623   4.460819   3.285976   4.700111
    22  H    3.395232   4.848367   3.879830   3.408785   6.569293
    23  H    2.156821   2.853185   3.403429   3.880131   8.763774
    24  H    2.157753   2.854154   1.086850   2.155807   8.778998
    25  H    3.398206   4.852138   2.153457   1.086877   6.566310
                   16         17         18         19         20
    16  H    0.000000
    17  H    1.787346   0.000000
    18  H    3.015235   3.605515   0.000000
    19  H    3.766766   4.230017   1.754210   0.000000
    20  H    2.607261   3.777855   1.774241   1.792305   0.000000
    21  H    4.700619   4.311668   3.978608   2.696448   3.877484
    22  H    6.379412   5.631390   6.329707   5.107297   6.081892
    23  H    8.260000   7.639131   8.554890   7.207941   7.988591
    24  H    7.689987   8.033085   8.064483   6.599535   6.755036
    25  H    5.589012   6.127255   5.636649   4.199748   4.314753
                   21         22         23         24         25
    21  H    0.000000
    22  H    2.429499   0.000000
    23  H    4.688579   2.467953   0.000000
    24  H    5.405544   4.966650   4.303650   0.000000
    25  H    3.624735   4.313152   4.966543   2.473983   0.000000
 Stoichiometry    C8H11ClN2O2S
 Framework group  C1[X(C8H11ClN2O2S)]
 Deg. of freedom    69
 Full point group                 C1      NOp   1
 Largest Abelian subgroup         C1      NOp   1
 Largest concise Abelian subgroup C1      NOp   1
                         Standard orientation:                         
 ---------------------------------------------------------------------
 Center     Atomic      Atomic             Coordinates (Angstroms)
 Number     Number       Type             X           Y           Z
 ---------------------------------------------------------------------
      1          6           0        4.381638   -0.574522   -0.688028
      2          7           0        3.361805   -0.143105    0.308863
      3          6           0        3.749966    1.149650    0.911637
      4         16           0        1.789149   -0.217623   -0.335632
      5          8           0        1.675271    0.820195   -1.330739
      6          8           0        1.518173   -1.605132   -0.640407
      7          7           0        0.866051    0.201378    1.025618
      8          6           0       -0.552439    0.180834    0.772294
      9          6           0       -1.299417   -0.972381    1.036732
     10          6           0       -2.647856   -1.036130    0.665165
     11          6           0       -3.246048    0.053789    0.034667
     12         17           0       -4.889244   -0.041782   -0.467948
     13          6           0       -2.511883    1.212320   -0.212356
     14          6           0       -1.160269    1.269580    0.144374
     15          1           0        5.374387   -0.599145   -0.226359
     16          1           0        4.416041    0.120461   -1.534205
     17          1           0        4.170924   -1.583557   -1.053742
     18          1           0        4.771958    1.078470    1.302551
     19          1           0        3.107733    1.387906    1.762830
     20          1           0        3.719525    1.959215    0.178004
     21          1           0        1.124544   -0.439018    1.774699
     22          1           0       -0.840729   -1.841004    1.501568
     23          1           0       -3.218677   -1.943166    0.849096
     24          1           0       -2.977304    2.064534   -0.700574
     25          1           0       -0.582338    2.160319   -0.087748
 ---------------------------------------------------------------------
 Rotational constants (GHZ):      1.7975210      0.2333705      0.2288165
 Standard basis: 6-31G(d) (6D, 7F)
 There are   240 symmetry adapted basis functions of A   symmetry.
 Integral buffers will be    131072 words long.
 Raffenetti 2 integral format.
 Two-electron integral symmetry is turned on.
   240 basis functions,   484 primitive gaussians,   240 cartesian basis functions
    61 alpha electrons       61 beta electrons
       nuclear repulsion energy      1152.4988528783 Hartrees.
 NAtoms=   25 NActive=   25 NUniq=   25 SFac= 1.00D+00 NAtFMM=   60 NAOKFM=F Big=F
 One-electron integrals computed using PRISM.
 NBasis=   240 RedAO= T  NBF=   240
 NBsUse=   240 1.00D-06 NBFU=   240
 Harris functional with IExCor=  402 diagonalized for initial guess.
 ExpMin= 1.17D-01 ExpMax= 2.52D+04 ExpMxC= 3.78D+03 IAcc=3 IRadAn=         5 AccDes= 0.00D+00
 HarFok:  IExCor=  402 AccDes= 0.00D+00 IRadAn=         5 IDoV= 1
 ScaDFX=  1.000000  1.000000  1.000000  1.000000
 FoFCou: FMM=F IPFlag=           0 FMFlag=      100000 FMFlg1=           0
         NFxFlg=           0 DoJE=T BraDBF=F KetDBF=T FulRan=T
         Omega=  0.000000  0.000000  1.000000  0.000000  0.000000 ICntrl=     500 IOpCl=  0
         NMat0=    1 NMatS0=    1 NMatT0=    0 NMatD0=    1 NMtDS0=    0 NMtDT0=    0
         I1Cent=           4 NGrid=           0.
 Petite list used in FoFCou.
 Initial guess orbital symmetries:
       Occupied  (A) (A) (A) (A) (A) (A) (A) (A) (A) (A) (A) (A)
                 (A) (A) (A) (A) (A) (A) (A) (A) (A) (A) (A) (A)
                 (A) (A) (A) (A) (A) (A) (A) (A) (A) (A) (A) (A)
                 (A) (A) (A) (A) (A) (A) (A) (A) (A) (A) (A) (A)
                 (A) (A) (A) (A) (A) (A) (A) (A) (A) (A) (A) (A)
                 (A)
       Virtual   (A) (A) (A) (A) (A) (A) (A) (A) (A) (A) (A) (A)
                 (A) (A) (A) (A) (A) (A) (A) (A) (A) (A) (A) (A)
                 (A) (A) (A) (A) (A) (A) (A) (A) (A) (A) (A) (A)
                 (A) (A) (A) (A) (A) (A) (A) (A) (A) (A) (A) (A)
                 (A) (A) (A) (A) (A) (A) (A) (A) (A) (A) (A) (A)
                 (A) (A) (A) (A) (A) (A) (A) (A) (A) (A) (A) (A)
                 (A) (A) (A) (A) (A) (A) (A) (A) (A) (A) (A) (A)
                 (A) (A) (A) (A) (A) (A) (A) (A) (A) (A) (A) (A)
                 (A) (A) (A) (A) (A) (A) (A) (A) (A) (A) (A) (A)
                 (A) (A) (A) (A) (A) (A) (A) (A) (A) (A) (A) (A)
                 (A) (A) (A) (A) (A) (A) (A) (A) (A) (A) (A) (A)
                 (A) (A) (A) (A) (A) (A) (A) (A) (A) (A) (A) (A)
                 (A) (A) (A) (A) (A) (A) (A) (A) (A) (A) (A) (A)
                 (A) (A) (A) (A) (A) (A) (A) (A) (A) (A) (A) (A)
                 (A) (A) (A) (A) (A) (A) (A) (A) (A) (A) (A)
 The electronic state of the initial guess is 1-A.
 Requested convergence on RMS density matrix=1.00D-08 within 128 cycles.
 Requested convergence on MAX density matrix=1.00D-06.
 Requested convergence on             energy=1.00D-06.
 No special actions if energy rises.
 Integral accuracy reduced to 1.0D-05 until final iterations.
 Initial convergence to 1.0D-05 achieved.  Increase integral accuracy.
 SCF Done:  E(RB3LYP) =  -1429.72017869     A.U. after   14 cycles
             Convg  =    0.9696D-08             -V/T =  2.0058
 Calling FoFJK, ICntrl=      2127 FMM=F ISym2X=0 I1Cent= 0 IOpClX= 0 NMat=1 NMatS=1 NMatT=0.
 ***** Axes restored to original set *****
 -------------------------------------------------------------------
 Center     Atomic                   Forces (Hartrees/Bohr)
 Number     Number              X              Y              Z
 -------------------------------------------------------------------
      1        6           0.002271655    0.001847565   -0.006788024
      2        7          -0.000091689    0.010913901    0.018174500
      3        6           0.003663173    0.000140977   -0.001461136
      4       16          -0.004407291    0.008420471    0.024230581
      5        8          -0.001773563   -0.024286521   -0.017616059
      6        8          -0.012430343    0.013440073   -0.012760529
      7        7           0.011401071   -0.006734441    0.008332381
      8        6          -0.006059150    0.002878043   -0.002285371
      9        6           0.004063433   -0.001355152   -0.007967246
     10        6           0.000150683    0.005158207    0.005723471
     11        6          -0.006051538    0.001763306    0.013950334
     12       17           0.007056178   -0.002061318   -0.014485158
     13        6          -0.003571562   -0.002677811    0.004914577
     14        6           0.002526298   -0.004116485   -0.002932755
     15        1           0.006529829   -0.000358445    0.000293378
     16        1          -0.002425538   -0.001266607   -0.000906734
     17        1           0.003512834   -0.001736704   -0.001724922
     18        1          -0.002344264    0.003321142   -0.003868286
     19        1          -0.000586666   -0.001725829   -0.003888189
     20        1           0.000644253   -0.004636659   -0.000096463
     21        1          -0.001112596    0.001624685   -0.000704108
     22        1          -0.001330398   -0.001001526    0.000794762
     23        1          -0.000026198   -0.001649349    0.000767664
     24        1          -0.000011481    0.001644132   -0.000125841
     25        1           0.000402874    0.002454345    0.000429174
 -------------------------------------------------------------------
 Cartesian Forces:  Max     0.024286521 RMS     0.007090206

 GradGradGradGradGradGradGradGradGradGradGradGradGradGradGradGradGradGrad
 Berny optimization.
 Internal  Forces:  Max     0.027264168 RMS     0.005401137
 Search for a local minimum.
 Step number   1 out of a maximum of  129
 All quantities printed in internal units (Hartrees-Bohrs-Radians)
 Mixed Optimization -- RFO/linear search
 Second derivative matrix not updated -- first step.
 ITU=  0
     Eigenvalues ---    0.00502   0.00657   0.01148   0.01280   0.01332
     Eigenvalues ---    0.01844   0.02094   0.02105   0.02121   0.02124
     Eigenvalues ---    0.02128   0.02141   0.02157   0.02171   0.02393
     Eigenvalues ---    0.03452   0.07055   0.07055   0.07246   0.07446
     Eigenvalues ---    0.10892   0.11239   0.11942   0.12338   0.15990
     Eigenvalues ---    0.15995   0.15996   0.15998   0.16000   0.16000
     Eigenvalues ---    0.16000   0.16000   0.16000   0.16000   0.17365
     Eigenvalues ---    0.18410   0.18512   0.21999   0.22967   0.23381
     Eigenvalues ---    0.23973   0.24859   0.24995   0.25000   0.33454
     Eigenvalues ---    0.33477   0.34070   0.34181   0.34227   0.34382
     Eigenvalues ---    0.34474   0.34515   0.34771   0.35118   0.35176
     Eigenvalues ---    0.35179   0.35194   0.35743   0.36223   0.39438
     Eigenvalues ---    0.41631   0.42369   0.44523   0.45679   0.45907
     Eigenvalues ---    0.46407   0.46535   0.97656   0.99454
 RFO step:  Lambda=-1.33040909D-02 EMin= 5.01819140D-03
 Linear search not attempted -- first point.
 Iteration  1 RMS(Cart)=  0.13773408 RMS(Int)=  0.00475842
 Iteration  2 RMS(Cart)=  0.00898717 RMS(Int)=  0.00050879
 Iteration  3 RMS(Cart)=  0.00002266 RMS(Int)=  0.00050858
 Iteration  4 RMS(Cart)=  0.00000004 RMS(Int)=  0.00050858
 Variable       Old X    -DE/DX   Delta X   Delta X   Delta X     New X
                                 (Linear)    (Quad)   (Total)
    R1        2.81561  -0.01047   0.00000  -0.03011  -0.03011   2.78550
    R2        2.06948  -0.00157   0.00000  -0.00443  -0.00443   2.06506
    R3        2.07026   0.00243   0.00000   0.00684   0.00684   2.07711
    R4        2.06690  -0.00134   0.00000  -0.00374  -0.00374   2.06316
    R5        2.79349  -0.00402   0.00000  -0.01115  -0.01115   2.78234
    R6        3.21485  -0.00248   0.00000  -0.00669  -0.00669   3.20816
    R7        2.07212  -0.00180   0.00000  -0.00508  -0.00508   2.06704
    R8        2.06470  -0.00083   0.00000  -0.00233  -0.00233   2.06237
    R9        2.06538   0.00408   0.00000   0.01139   0.01139   2.07677
   R10        2.72558   0.02726   0.00000   0.02705   0.02705   2.75263
   R11        2.73292   0.02062   0.00000   0.02083   0.02083   2.75376
   R12        3.20735   0.00820   0.00000   0.02184   0.02184   3.22918
   R13        2.72325  -0.00051   0.00000  -0.00124  -0.00124   2.72200
   R14        1.92534   0.00080   0.00000   0.00174   0.00174   1.92708
   R15        2.64414   0.00033   0.00000   0.00026   0.00040   2.64453
   R16        2.63826   0.00017   0.00000   0.00002   0.00016   2.63841
   R17        2.64589  -0.00614   0.00000  -0.01320  -0.01320   2.63270
   R18        2.05361  -0.00051   0.00000  -0.00139  -0.00139   2.05222
   R19        2.63431   0.00198   0.00000   0.00447   0.00432   2.63864
   R20        2.05484  -0.00172   0.00000  -0.00473  -0.00473   2.05011
   R21        3.25222   0.01622   0.00000   0.04659   0.04659   3.29881
   R22        2.63358   0.00218   0.00000   0.00499   0.00485   2.63844
   R23        2.64386  -0.00485   0.00000  -0.01020  -0.01020   2.63366
   R24        2.05385  -0.00148   0.00000  -0.00404  -0.00404   2.04981
   R25        2.05390  -0.00185   0.00000  -0.00508  -0.00508   2.04882
    A1        1.92297  -0.00882   0.00000  -0.05217  -0.05244   1.87053
    A2        1.93328   0.00463   0.00000   0.02955   0.02980   1.96307
    A3        1.93796  -0.00432   0.00000  -0.02643  -0.02679   1.91117
    A4        1.88747   0.00285   0.00000   0.01945   0.01979   1.90727
    A5        1.87010   0.00554   0.00000   0.02647   0.02550   1.89560
    A6        1.91031   0.00032   0.00000   0.00420   0.00435   1.91466
    A7        1.92443   0.00804   0.00000   0.03639   0.03593   1.96036
    A8        1.94613  -0.00398   0.00000  -0.02418  -0.02392   1.92222
    A9        2.02141  -0.00485   0.00000  -0.03029  -0.03004   1.99137
   A10        1.91064  -0.00734   0.00000  -0.04066  -0.04064   1.86999
   A11        1.93267  -0.00172   0.00000  -0.01057  -0.01062   1.92205
   A12        1.94631   0.00385   0.00000   0.02110   0.02122   1.96753
   A13        1.85905   0.00495   0.00000   0.03080   0.03062   1.88966
   A14        1.88951   0.00213   0.00000   0.01340   0.01359   1.90310
   A15        1.92308  -0.00182   0.00000  -0.01356  -0.01351   1.90957
   A16        1.87847   0.01762   0.00000   0.08548   0.08410   1.96257
   A17        1.87033   0.00096   0.00000   0.00249   0.00300   1.87333
   A18        1.76004  -0.02173   0.00000  -0.08058  -0.07960   1.68044
   A19        2.12958  -0.00815   0.00000  -0.03337  -0.03428   2.09530
   A20        1.91004  -0.00419   0.00000  -0.03448  -0.03227   1.87777
   A21        1.87965   0.01236   0.00000   0.04992   0.05003   1.92968
   A22        1.97235   0.00581   0.00000   0.02542   0.02534   1.99768
   A23        1.87184  -0.00263   0.00000  -0.00924  -0.00941   1.86242
   A24        1.94982  -0.00048   0.00000   0.00665   0.00662   1.95644
   A25        2.09904   0.00354   0.00000   0.01657   0.01535   2.11439
   A26        2.09035  -0.00395   0.00000  -0.01204  -0.01329   2.07706
   A27        2.08899   0.00065   0.00000   0.00314   0.00255   2.09154
   A28        2.09614   0.00085   0.00000   0.00239   0.00250   2.09864
   A29        2.11097  -0.00205   0.00000  -0.01017  -0.01049   2.10047
   A30        2.07558   0.00124   0.00000   0.00882   0.00850   2.08407
   A31        2.09174  -0.00119   0.00000  -0.00488  -0.00487   2.08687
   A32        2.09285   0.00105   0.00000   0.00507   0.00506   2.09791
   A33        2.09836   0.00014   0.00000  -0.00014  -0.00014   2.09822
   A34        2.09253  -0.00060   0.00000  -0.00277  -0.00276   2.08977
   A35        2.09910   0.00062   0.00000   0.00363   0.00344   2.10254
   A36        2.09137  -0.00001   0.00000  -0.00052  -0.00051   2.09087
   A37        2.09181  -0.00060   0.00000  -0.00159  -0.00173   2.09008
   A38        2.10118  -0.00042   0.00000  -0.00309  -0.00324   2.09795
   A39        2.08995   0.00104   0.00000   0.00532   0.00518   2.09513
   A40        2.09829  -0.00031   0.00000  -0.00205  -0.00180   2.09650
   A41        2.09863  -0.00159   0.00000  -0.00890  -0.00909   2.08955
   A42        2.08609   0.00190   0.00000   0.01124   0.01105   2.09714
    D1        0.95345   0.00287   0.00000   0.05367   0.05327   1.00671
    D2       -3.05865  -0.00027   0.00000   0.02318   0.02250  -3.03616
    D3       -1.13426   0.00205   0.00000   0.04424   0.04447  -1.08979
    D4        1.13683  -0.00108   0.00000   0.01375   0.01370   1.15053
    D5        3.02252   0.00141   0.00000   0.03667   0.03727   3.05979
    D6       -0.98958  -0.00172   0.00000   0.00618   0.00650  -0.98308
    D7       -0.92308  -0.00169   0.00000  -0.04184  -0.04184  -0.96493
    D8       -2.96764  -0.00227   0.00000  -0.04856  -0.04882  -3.01646
    D9        1.16742  -0.00142   0.00000  -0.03846  -0.03868   1.12874
   D10        3.12983   0.00071   0.00000  -0.01531  -0.01499   3.11484
   D11        1.08528   0.00014   0.00000  -0.02203  -0.02197   1.06331
   D12       -1.06285   0.00098   0.00000  -0.01193  -0.01183  -1.07468
   D13       -1.21334  -0.00736   0.00000  -0.09894  -0.10072  -1.31406
   D14        1.10568  -0.00440   0.00000  -0.07831  -0.07835   1.02733
   D15        3.06959   0.00051   0.00000  -0.05595  -0.05502   3.01457
   D16        1.00613  -0.00383   0.00000  -0.09578  -0.09698   0.90916
   D17       -2.95803  -0.00088   0.00000  -0.07516  -0.07460  -3.03264
   D18       -0.99413   0.00404   0.00000  -0.05280  -0.05127  -1.04539
   D19       -3.11208   0.00223   0.00000  -0.03198  -0.03075   3.14036
   D20       -0.95561   0.00353   0.00000  -0.01352  -0.01235  -0.96796
   D21        1.19471  -0.00587   0.00000  -0.07772  -0.07838   1.11633
   D22       -2.93201  -0.00456   0.00000  -0.05926  -0.05998  -2.99199
   D23       -1.15529  -0.00173   0.00000  -0.04646  -0.04694  -1.20224
   D24        1.00117  -0.00043   0.00000  -0.02800  -0.02854   0.97263
   D25        1.62298   0.00207   0.00000   0.06837   0.06843   1.69141
   D26       -1.41311  -0.00064   0.00000  -0.01581  -0.01570  -1.42881
   D27       -0.48984   0.00167   0.00000   0.05720   0.05709  -0.43274
   D28        2.75726  -0.00104   0.00000  -0.02698  -0.02704   2.73021
   D29       -3.02909  -0.00329   0.00000  -0.10449  -0.10513  -3.13422
   D30        0.07806  -0.00205   0.00000  -0.06871  -0.06942   0.00864
   D31        0.00709  -0.00086   0.00000  -0.02130  -0.02126  -0.01417
   D32        3.11424   0.00038   0.00000   0.01448   0.01445   3.12869
   D33        3.04322   0.00279   0.00000   0.07871   0.07793   3.12115
   D34       -0.07813   0.00214   0.00000   0.06188   0.06134  -0.01679
   D35        0.00652  -0.00009   0.00000  -0.00581  -0.00588   0.00064
   D36       -3.11484  -0.00073   0.00000  -0.02264  -0.02247  -3.13730
   D37       -0.00348   0.00100   0.00000   0.02685   0.02671   0.02323
   D38        3.11423   0.00103   0.00000   0.02924   0.02926  -3.13970
   D39       -3.11133  -0.00015   0.00000  -0.00784  -0.00829  -3.11961
   D40        0.00639  -0.00012   0.00000  -0.00545  -0.00575   0.00064
   D41        3.10739   0.00048   0.00000   0.01391   0.01393   3.12132
   D42       -0.01382  -0.00016   0.00000  -0.00514  -0.00515  -0.01897
   D43       -0.01024   0.00044   0.00000   0.01145   0.01131   0.00107
   D44       -3.13146  -0.00020   0.00000  -0.00761  -0.00776  -3.13922
   D45        0.02738  -0.00080   0.00000  -0.02190  -0.02182   0.00557
   D46       -3.13774   0.00031   0.00000   0.00946   0.00934  -3.12840
   D47       -3.09385  -0.00142   0.00000  -0.04092  -0.04088  -3.13473
   D48        0.02421  -0.00032   0.00000  -0.00956  -0.00972   0.01449
   D49       -0.02373   0.00095   0.00000   0.02751   0.02736   0.00364
   D50        3.09777   0.00154   0.00000   0.04399   0.04379   3.14156
   D51        3.14125  -0.00014   0.00000  -0.00353  -0.00363   3.13761
   D52       -0.02044   0.00046   0.00000   0.01295   0.01279  -0.00765
         Item               Value     Threshold  Converged?
 Maximum Force            0.027264     0.000450     NO 
 RMS     Force            0.005401     0.000300     NO 
 Maximum Displacement     0.533185     0.001800     NO 
 RMS     Displacement     0.138761     0.001200     NO 
 Predicted change in Energy=-7.664428D-03
 GradGradGradGradGradGradGradGradGradGradGradGradGradGradGradGradGradGrad

                          Input orientation:                          
 ---------------------------------------------------------------------
 Center     Atomic      Atomic             Coordinates (Angstroms)
 Number     Number       Type             X           Y           Z
 ---------------------------------------------------------------------
      1          6           0        1.087224    0.124866    0.081651
      2          7           0        2.535203   -0.087186   -0.094798
      3          6           0        3.064251   -1.117787    0.813930
      4         16           0        2.890820   -0.358430   -1.732511
      5          8           0        2.509965   -1.694430   -2.170492
      6          8           0        2.436134    0.810198   -2.474855
      7          7           0        4.590842   -0.336344   -1.560855
      8          6           0        5.316873   -0.542855   -2.787660
      9          6           0        5.810598    0.537749   -3.527203
     10          6           0        6.502746    0.316720   -4.715893
     11          6           0        6.676655   -0.988873   -5.179417
     12         17           0        7.516744   -1.268862   -6.683800
     13          6           0        6.182129   -2.071167   -4.449034
     14          6           0        5.504388   -1.846061   -3.252239
     15          1           0        0.926569    0.401171    1.126645
     16          1           0        0.499481   -0.774500   -0.150396
     17          1           0        0.760123    0.951856   -0.551647
     18          1           0        2.796116   -0.818892    1.831391
     19          1           0        4.152696   -1.156795    0.744422
     20          1           0        2.649417   -2.115271    0.612213
     21          1           0        4.829375    0.551076   -1.118689
     22          1           0        5.659014    1.555414   -3.179709
     23          1           0        6.886729    1.154855   -5.287759
     24          1           0        6.330325   -3.084357   -4.806917
     25          1           0        5.117622   -2.681659   -2.679828
 ---------------------------------------------------------------------
                    Distance matrix (angstroms):
                    1          2          3          4          5
     1  C    0.000000
     2  N    1.474023   0.000000
     3  C    2.447254   1.472351   0.000000
     4  S    2.603405   1.697687   2.662905   0.000000
     5  O    3.225861   2.625333   3.089745   1.456631   0.000000
     6  O    2.970683   2.545541   3.863645   1.457225   2.524133
     7  N    3.896907   2.537135   2.929289   1.708810   2.558536
     8  C    5.154486   3.898310   4.286759   2.651996   3.096087
     9  C    5.958570   4.785411   5.397097   3.542479   4.209212
    10  C    7.237480   6.104020   6.667833   4.733118   5.144521
    11  C    7.756351   6.619517   6.999020   5.158601   5.187750
    12  Cl   9.436765   8.344282   8.721437   6.836908   6.754176
    13  C    7.162941   6.016279   6.191033   4.598443   4.338026
    14  C    5.874582   4.677513   4.797747   3.369474   3.187434
    15  H    1.092780   2.078009   2.640967   3.551064   4.215425
    16  H    1.099157   2.149339   2.761487   2.897362   2.994847
    17  H    1.091775   2.106947   3.384852   2.766073   3.561662
    18  H    2.621562   2.076939   1.093829   3.594773   4.106522
    19  H    3.388074   2.112969   1.091360   2.892216   3.388855
    20  H    2.782114   2.150823   1.098978   2.939813   2.817801
    21  H    3.952995   2.592095   3.104156   2.227549   3.395328
    22  H    5.795188   4.687537   5.461497   3.663343   4.636434
    23  H    7.970301   6.888053   7.550287   5.558516   6.082092
    24  H    7.854128   6.752041   6.791801   5.358437   4.845388
    25  H    5.634399   4.481356   4.343774   3.354615   2.834417
                    6          7          8          9         10
     6  O    0.000000
     7  N    2.606285   0.000000
     8  C    3.198008   1.440423   0.000000
     9  C    3.545232   2.473533   1.399426   0.000000
    10  C    4.669379   3.746483   2.421415   1.393164   0.000000
    11  C    5.341659   4.227339   2.787192   2.410485   1.396306
    12  Cl   6.917391   5.972860   4.532816   4.017323   2.723035
    13  C    5.121730   3.726041   2.417555   2.791819   2.424050
    14  C    4.132096   2.444298   1.396189   2.419075   2.795823
    15  H    3.926435   4.603639   5.957159   6.747644   8.076889
    16  H    3.415407   4.349783   5.496916   6.429058   7.620612
    17  H    2.554957   4.165617   5.291302   5.876454   7.121942
    18  H    4.618146   3.867975   5.269349   6.296198   7.608919
    19  H    4.144802   2.485842   3.769328   4.885376   6.124461
    20  H    4.258385   3.414080   4.598581   5.845199   7.010809
    21  H    2.762957   1.019766   2.054215   2.600753   3.974288
    22  H    3.382177   2.709322   2.161827   1.085988   2.146184
    23  H    5.276268   4.624347   3.405460   2.153702   1.084870
    24  H    5.980869   4.595030   3.400547   3.876524   3.406661
    25  H    4.407431   2.651433   2.150770   3.400419   3.880001
                   11         12         13         14         15
    11  C    0.000000
    12  Cl   1.745655   0.000000
    13  C    1.396201   2.723797   0.000000
    14  C    2.413089   4.019745   1.393673   0.000000
    15  H    8.646510  10.354829   8.051184   6.721690   0.000000
    16  H    7.968343   9.600611   7.242384   5.984878   1.787580
    17  H    7.758094   9.390783   7.329832   6.134295   1.774154
    18  H    8.014918   9.746552   7.244102   5.850907   2.341032
    19  H    6.441306   8.155235   5.650367   4.274980   3.602951
    20  H    7.143556   8.811304   6.172376   4.812206   3.092787
    21  H    4.719469   6.442405   4.449415   3.279320   4.505097
    22  H    3.392317   4.868916   3.877747   3.405760   6.501770
    23  H    2.156719   2.867098   3.406925   3.880684   8.788409
    24  H    2.156329   2.868153   1.084710   2.152341   8.749666
    25  H    3.397654   4.876840   2.153129   1.084189   6.446550
                   16         17         18         19         20
    16  H    0.000000
    17  H    1.791436   0.000000
    18  H    3.033807   3.599956   0.000000
    19  H    3.780586   4.199494   1.770873   0.000000
    20  H    2.646028   3.785666   1.785641   1.787737   0.000000
    21  H    4.630629   4.128071   3.835874   2.616467   3.854562
    22  H    6.420749   5.591970   6.240564   5.002387   6.075383
    23  H    8.420917   7.746435   8.444589   7.014689   7.966066
    24  H    7.811362   8.088602   7.854305   6.266971   6.622325
    25  H    5.600224   6.059651   5.404663   3.870630   4.153356
                   21         22         23         24         25
    21  H    0.000000
    22  H    2.438196   0.000000
    23  H    4.688112   2.472166   0.000000
    24  H    5.391869   4.962453   4.302524   0.000000
    25  H    3.601501   4.300671   4.964864   2.481396   0.000000
 Stoichiometry    C8H11ClN2O2S
 Framework group  C1[X(C8H11ClN2O2S)]
 Deg. of freedom    69
 Full point group                 C1      NOp   1
 Largest Abelian subgroup         C1      NOp   1
 Largest concise Abelian subgroup C1      NOp   1
                         Standard orientation:                         
 ---------------------------------------------------------------------
 Center     Atomic      Atomic             Coordinates (Angstroms)
 Number     Number       Type             X           Y           Z
 ---------------------------------------------------------------------
      1          6           0        4.456306   -0.490205   -0.447204
      2          7           0        3.341653   -0.066584    0.419306
      3          6           0        3.558457    1.270848    0.995576
      4         16           0        1.865690   -0.236435   -0.402171
      5          8           0        1.659807    0.807032   -1.397440
      6          8           0        1.736536   -1.638571   -0.777454
      7          7           0        0.864768    0.121414    0.935786
      8          6           0       -0.546782    0.085681    0.651064
      9          6           0       -1.313272   -1.050976    0.931953
     10          6           0       -2.675552   -1.068218    0.640743
     11          6           0       -3.266085    0.045866    0.040945
     12         17           0       -4.966333    0.017387   -0.353593
     13          6           0       -2.506014    1.181198   -0.246613
     14          6           0       -1.146902    1.199835    0.061267
     15          1           0        5.364466   -0.465529    0.160090
     16          1           0        4.584480    0.167358   -1.318598
     17          1           0        4.288542   -1.515880   -0.781596
     18          1           0        4.519974    1.245483    1.516445
     19          1           0        2.779455    1.495757    1.726082
     20          1           0        3.584219    2.062441    0.233692
     21          1           0        1.123068   -0.529069    1.677457
     22          1           0       -0.852535   -1.926592    1.379599
     23          1           0       -3.269461   -1.949106    0.860403
     24          1           0       -2.971737    2.048864   -0.701425
     25          1           0       -0.550482    2.077981   -0.159206
 ---------------------------------------------------------------------
 Rotational constants (GHZ):      1.8037738      0.2300712      0.2248047
 Standard basis: 6-31G(d) (6D, 7F)
 There are   240 symmetry adapted basis functions of A   symmetry.
 Integral buffers will be    131072 words long.
 Raffenetti 2 integral format.
 Two-electron integral symmetry is turned on.
   240 basis functions,   484 primitive gaussians,   240 cartesian basis functions
    61 alpha electrons       61 beta electrons
       nuclear repulsion energy      1148.6987564680 Hartrees.
 NAtoms=   25 NActive=   25 NUniq=   25 SFac= 1.00D+00 NAtFMM=   60 NAOKFM=F Big=F
 One-electron integrals computed using PRISM.
 NBasis=   240 RedAO= T  NBF=   240
 NBsUse=   240 1.00D-06 NBFU=   240
 Initial guess read from the read-write file.
 B after Tr=     0.000000    0.000000    0.000000
         Rot=    1.000000    0.000000    0.000000    0.000000 Ang=   0.00 deg.
 Initial guess orbital symmetries:
       Occupied  (A) (A) (A) (A) (A) (A) (A) (A) (A) (A) (A) (A)
                 (A) (A) (A) (A) (A) (A) (A) (A) (A) (A) (A) (A)
                 (A) (A) (A) (A) (A) (A) (A) (A) (A) (A) (A) (A)
                 (A) (A) (A) (A) (A) (A) (A) (A) (A) (A) (A) (A)
                 (A) (A) (A) (A) (A) (A) (A) (A) (A) (A) (A) (A)
                 (A)
       Virtual   (A) (A) (A) (A) (A) (A) (A) (A) (A) (A) (A) (A)
                 (A) (A) (A) (A) (A) (A) (A) (A) (A) (A) (A) (A)
                 (A) (A) (A) (A) (A) (A) (A) (A) (A) (A) (A) (A)
                 (A) (A) (A) (A) (A) (A) (A) (A) (A) (A) (A) (A)
                 (A) (A) (A) (A) (A) (A) (A) (A) (A) (A) (A) (A)
                 (A) (A) (A) (A) (A) (A) (A) (A) (A) (A) (A) (A)
                 (A) (A) (A) (A) (A) (A) (A) (A) (A) (A) (A) (A)
                 (A) (A) (A) (A) (A) (A) (A) (A) (A) (A) (A) (A)
                 (A) (A) (A) (A) (A) (A) (A) (A) (A) (A) (A) (A)
                 (A) (A) (A) (A) (A) (A) (A) (A) (A) (A) (A) (A)
                 (A) (A) (A) (A) (A) (A) (A) (A) (A) (A) (A) (A)
                 (A) (A) (A) (A) (A) (A) (A) (A) (A) (A) (A) (A)
                 (A) (A) (A) (A) (A) (A) (A) (A) (A) (A) (A) (A)
                 (A) (A) (A) (A) (A) (A) (A) (A) (A) (A) (A) (A)
                 (A) (A) (A) (A) (A) (A) (A) (A) (A) (A) (A)
 Harris functional with IExCor=  402 diagonalized for initial guess.
 ExpMin= 1.17D-01 ExpMax= 2.52D+04 ExpMxC= 3.78D+03 IAcc=3 IRadAn=         5 AccDes= 0.00D+00
 HarFok:  IExCor=  402 AccDes= 0.00D+00 IRadAn=         5 IDoV= 1
 ScaDFX=  1.000000  1.000000  1.000000  1.000000
 FoFCou: FMM=F IPFlag=           0 FMFlag=      100000 FMFlg1=           0
         NFxFlg=           0 DoJE=T BraDBF=F KetDBF=T FulRan=T
         Omega=  0.000000  0.000000  1.000000  0.000000  0.000000 ICntrl=     500 IOpCl=  0
         NMat0=    1 NMatS0=    1 NMatT0=    0 NMatD0=    1 NMtDS0=    0 NMtDT0=    0
         I1Cent=           4 NGrid=           0.
 Petite list used in FoFCou.
 Requested convergence on RMS density matrix=1.00D-08 within 128 cycles.
 Requested convergence on MAX density matrix=1.00D-06.
 Requested convergence on             energy=1.00D-06.
 No special actions if energy rises.
 Integral accuracy reduced to 1.0D-05 until final iterations.
 Initial convergence to 1.0D-05 achieved.  Increase integral accuracy.
 SCF Done:  E(RB3LYP) =  -1429.72790830     A.U. after   13 cycles
             Convg  =    0.3171D-08             -V/T =  2.0058
 Calling FoFJK, ICntrl=      2127 FMM=F ISym2X=0 I1Cent= 0 IOpClX= 0 NMat=1 NMatS=1 NMatT=0.
 ***** Axes restored to original set *****
 -------------------------------------------------------------------
 Center     Atomic                   Forces (Hartrees/Bohr)
 Number     Number              X              Y              Z
 -------------------------------------------------------------------
      1        6          -0.000903576    0.003695757    0.000990255
      2        7          -0.000472726   -0.000343450    0.000232607
      3        6           0.000622736   -0.002002946    0.002287989
      4       16           0.006190358    0.002682780    0.006749746
      5        8          -0.001076743   -0.007729443   -0.004064500
      6        8          -0.005813804    0.004569012   -0.002782431
      7        7           0.006056864    0.000157030   -0.002751858
      8        6          -0.002620861    0.001070683    0.001111203
      9        6           0.001514546   -0.001133887    0.000363927
     10        6           0.000807070    0.000175907   -0.001175810
     11        6          -0.003305648    0.001219923    0.006416862
     12       17           0.002427577   -0.000702766   -0.003587637
     13        6           0.000107490   -0.000599196   -0.000493027
     14        6           0.001144407   -0.001263832   -0.001147222
     15        1          -0.000860174   -0.000035896    0.000184315
     16        1          -0.000262660    0.000042564    0.000566752
     17        1           0.000203926   -0.000862820   -0.000253351
     18        1          -0.000539247    0.000067874    0.000002534
     19        1          -0.001366970   -0.000666450   -0.001207598
     20        1          -0.000148881    0.000092969    0.000065172
     21        1          -0.000525037    0.001060013   -0.001299922
     22        1          -0.000995421    0.000096715    0.000302513
     23        1           0.000167513   -0.000288786   -0.000192866
     24        1          -0.000038053    0.000177368   -0.000602289
     25        1          -0.000312686    0.000520876    0.000284636
 -------------------------------------------------------------------
 Cartesian Forces:  Max     0.007729443 RMS     0.002322915

 GradGradGradGradGradGradGradGradGradGradGradGradGradGradGradGradGradGrad
 Berny optimization.
 Using GEDIIS/GDIIS optimizer.
 Internal  Forces:  Max     0.008593070 RMS     0.001630375
 Search for a local minimum.
 Step number   2 out of a maximum of  129
 All quantities printed in internal units (Hartrees-Bohrs-Radians)
 Mixed Optimization -- RFO/linear search
 Update second derivatives using D2CorX and points    1    2
 DE= -7.73D-03 DEPred=-7.66D-03 R= 1.01D+00
 SS=  1.41D+00  RLast= 3.80D-01 DXNew= 5.0454D-01 1.1397D+00
 Trust test= 1.01D+00 RLast= 3.80D-01 DXMaxT set to 5.05D-01
 ITU=  1  0
 Use linear search instead of GDIIS.
     Eigenvalues ---    0.00503   0.00657   0.01117   0.01169   0.01331
     Eigenvalues ---    0.01837   0.02090   0.02119   0.02121   0.02124
     Eigenvalues ---    0.02129   0.02143   0.02153   0.02171   0.02509
     Eigenvalues ---    0.03316   0.07023   0.07029   0.07634   0.07660
     Eigenvalues ---    0.10899   0.11537   0.11935   0.12148   0.15705
     Eigenvalues ---    0.15997   0.16000   0.16000   0.16000   0.16000
     Eigenvalues ---    0.16000   0.16000   0.16000   0.16323   0.17126
     Eigenvalues ---    0.17415   0.18638   0.21998   0.22826   0.23060
     Eigenvalues ---    0.23971   0.24983   0.25000   0.28126   0.32438
     Eigenvalues ---    0.33919   0.34085   0.34187   0.34243   0.34378
     Eigenvalues ---    0.34465   0.34544   0.35018   0.35118   0.35171
     Eigenvalues ---    0.35180   0.35204   0.35965   0.36927   0.39496
     Eigenvalues ---    0.41646   0.42459   0.44520   0.45718   0.46038
     Eigenvalues ---    0.46438   0.46536   0.93639   0.98494
 RFO step:  Lambda=-3.69927673D-03 EMin= 5.02573386D-03
 Quartic linear search produced a step of  0.20625.
 Iteration  1 RMS(Cart)=  0.10978886 RMS(Int)=  0.00336830
 Iteration  2 RMS(Cart)=  0.00638134 RMS(Int)=  0.00014827
 Iteration  3 RMS(Cart)=  0.00001772 RMS(Int)=  0.00014804
 Iteration  4 RMS(Cart)=  0.00000000 RMS(Int)=  0.00014804
 Variable       Old X    -DE/DX   Delta X   Delta X   Delta X     New X
                                 (Linear)    (Quad)   (Total)
    R1        2.78550   0.00238  -0.00621   0.00888   0.00267   2.78817
    R2        2.06506   0.00029  -0.00091   0.00109   0.00018   2.06523
    R3        2.07711  -0.00001   0.00141  -0.00020   0.00121   2.07832
    R4        2.06316  -0.00057  -0.00077  -0.00182  -0.00260   2.06056
    R5        2.78234   0.00195  -0.00230   0.00673   0.00443   2.78677
    R6        3.20816   0.00355  -0.00138   0.01162   0.01024   3.21840
    R7        2.06704   0.00015  -0.00105   0.00063  -0.00041   2.06662
    R8        2.06237  -0.00126  -0.00048  -0.00417  -0.00465   2.05772
    R9        2.07677  -0.00004   0.00235  -0.00039   0.00196   2.07873
   R10        2.75263   0.00859   0.00558   0.00954   0.01512   2.76775
   R11        2.75376   0.00690   0.00430   0.00782   0.01212   2.76587
   R12        3.22918   0.00413   0.00450   0.01270   0.01721   3.24639
   R13        2.72200  -0.00154  -0.00026  -0.00450  -0.00475   2.71725
   R14        1.92708   0.00024   0.00036   0.00058   0.00094   1.92801
   R15        2.64453  -0.00057   0.00008  -0.00138  -0.00121   2.64333
   R16        2.63841   0.00127   0.00003   0.00326   0.00338   2.64180
   R17        2.63270   0.00015  -0.00272   0.00063  -0.00209   2.63061
   R18        2.05222   0.00033  -0.00029   0.00110   0.00081   2.05303
   R19        2.63864  -0.00094   0.00089  -0.00253  -0.00173   2.63691
   R20        2.05011  -0.00006  -0.00098  -0.00010  -0.00108   2.04903
   R21        3.29881   0.00437   0.00961   0.01404   0.02365   3.32246
   R22        2.63844  -0.00082   0.00100  -0.00220  -0.00129   2.63714
   R23        2.63366  -0.00038  -0.00210  -0.00070  -0.00281   2.63085
   R24        2.04981   0.00003  -0.00083   0.00018  -0.00065   2.04915
   R25        2.04882  -0.00014  -0.00105  -0.00035  -0.00139   2.04743
    A1        1.87053   0.00123  -0.01082   0.01130   0.00042   1.87095
    A2        1.96307   0.00026   0.00615  -0.00006   0.00614   1.96921
    A3        1.91117  -0.00046  -0.00553  -0.00260  -0.00819   1.90298
    A4        1.90727  -0.00083   0.00408  -0.00662  -0.00247   1.90480
    A5        1.89560   0.00000   0.00526   0.00170   0.00676   1.90236
    A6        1.91466  -0.00018   0.00090  -0.00335  -0.00242   1.91224
    A7        1.96036  -0.00099   0.00741  -0.00171   0.00555   1.96591
    A8        1.92222   0.00167  -0.00493   0.01742   0.01251   1.93472
    A9        1.99137  -0.00023  -0.00620   0.00552  -0.00074   1.99064
   A10        1.86999  -0.00014  -0.00838   0.00191  -0.00647   1.86352
   A11        1.92205  -0.00039  -0.00219  -0.00213  -0.00434   1.91771
   A12        1.96753  -0.00024   0.00438  -0.00446  -0.00008   1.96745
   A13        1.88966   0.00100   0.00631   0.01091   0.01719   1.90685
   A14        1.90310   0.00000   0.00280  -0.00134   0.00150   1.90460
   A15        1.90957  -0.00017  -0.00279  -0.00405  -0.00684   1.90273
   A16        1.96257   0.00035   0.01735   0.00106   0.01813   1.98070
   A17        1.87333  -0.00274   0.00062  -0.01706  -0.01647   1.85685
   A18        1.68044   0.00465  -0.01642   0.03098   0.01468   1.69512
   A19        2.09530  -0.00076  -0.00707  -0.01459  -0.02179   2.07351
   A20        1.87777  -0.00148  -0.00666  -0.00131  -0.00764   1.87014
   A21        1.92968   0.00123   0.01032   0.01145   0.02188   1.95156
   A22        1.99768   0.00412   0.00523   0.02078   0.02593   2.02362
   A23        1.86242  -0.00143  -0.00194  -0.00462  -0.00669   1.85573
   A24        1.95644  -0.00098   0.00136  -0.00151  -0.00020   1.95624
   A25        2.11439  -0.00001   0.00317  -0.00036   0.00198   2.11637
   A26        2.07706   0.00010  -0.00274   0.00082  -0.00272   2.07434
   A27        2.09154  -0.00007   0.00053   0.00027   0.00040   2.09193
   A28        2.09864   0.00010   0.00052   0.00060   0.00126   2.09990
   A29        2.10047  -0.00077  -0.00216  -0.00513  -0.00744   2.09304
   A30        2.08407   0.00066   0.00175   0.00454   0.00615   2.09022
   A31        2.08687  -0.00077  -0.00100  -0.00403  -0.00504   2.08183
   A32        2.09791   0.00077   0.00104   0.00475   0.00579   2.10370
   A33        2.09822   0.00000  -0.00003  -0.00063  -0.00067   2.09755
   A34        2.08977  -0.00083  -0.00057  -0.00369  -0.00423   2.08555
   A35        2.10254   0.00160   0.00071   0.00712   0.00771   2.11025
   A36        2.09087  -0.00076  -0.00010  -0.00342  -0.00349   2.08738
   A37        2.09008  -0.00084  -0.00036  -0.00425  -0.00467   2.08541
   A38        2.09795  -0.00012  -0.00067  -0.00162  -0.00233   2.09562
   A39        2.09513   0.00096   0.00107   0.00582   0.00684   2.10197
   A40        2.09650  -0.00002  -0.00037   0.00030   0.00010   2.09659
   A41        2.08955  -0.00064  -0.00187  -0.00453  -0.00650   2.08304
   A42        2.09714   0.00067   0.00228   0.00423   0.00641   2.10355
    D1        1.00671   0.00003   0.01099   0.02529   0.03616   1.04287
    D2       -3.03616   0.00030   0.00464   0.04552   0.05005  -2.98610
    D3       -1.08979   0.00009   0.00917   0.02608   0.03526  -1.05454
    D4        1.15053   0.00036   0.00283   0.04631   0.04915   1.19968
    D5        3.05979   0.00048   0.00769   0.03226   0.04004   3.09982
    D6       -0.98308   0.00074   0.00134   0.05249   0.05393  -0.92915
    D7       -0.96493   0.00063  -0.00863  -0.01796  -0.02661  -0.99153
    D8       -3.01646  -0.00027  -0.01007  -0.03093  -0.04106  -3.05751
    D9        1.12874   0.00040  -0.00798  -0.02102  -0.02906   1.09968
   D10        3.11484  -0.00063  -0.00309  -0.04514  -0.04816   3.06668
   D11        1.06331  -0.00153  -0.00453  -0.05811  -0.06261   1.00070
   D12       -1.07468  -0.00086  -0.00244  -0.04820  -0.05061  -1.12529
   D13       -1.31406  -0.00082  -0.02077  -0.13628  -0.15735  -1.47141
   D14        1.02733  -0.00397  -0.01616  -0.17033  -0.18646   0.84087
   D15        3.01457  -0.00154  -0.01135  -0.15030  -0.16158   2.85299
   D16        0.90916  -0.00094  -0.02000  -0.11947  -0.13964   0.76952
   D17       -3.03264  -0.00409  -0.01539  -0.15352  -0.16875   3.08180
   D18       -1.04539  -0.00166  -0.01057  -0.13349  -0.14387  -1.18926
   D19        3.14036  -0.00020  -0.00634  -0.04911  -0.05529   3.08506
   D20       -0.96796   0.00024  -0.00255  -0.04046  -0.04286  -1.01083
   D21        1.11633  -0.00206  -0.01617  -0.06249  -0.07879   1.03754
   D22       -2.99199  -0.00161  -0.01237  -0.05384  -0.06637  -3.05836
   D23       -1.20224  -0.00083  -0.00968  -0.05107  -0.06075  -1.26299
   D24        0.97263  -0.00038  -0.00589  -0.04242  -0.04833   0.92431
   D25        1.69141   0.00123   0.01411   0.06377   0.07792   1.76934
   D26       -1.42881   0.00033  -0.00324   0.02435   0.02118  -1.40763
   D27       -0.43274   0.00078   0.01178   0.05536   0.06707  -0.36568
   D28        2.73021  -0.00012  -0.00558   0.01595   0.01033   2.74054
   D29       -3.13422  -0.00108  -0.02168  -0.04360  -0.06550   3.08347
   D30        0.00864  -0.00101  -0.01432  -0.04391  -0.05845  -0.04982
   D31       -0.01417  -0.00017  -0.00438  -0.00386  -0.00823  -0.02240
   D32        3.12869  -0.00011   0.00298  -0.00417  -0.00119   3.12751
   D33        3.12115   0.00087   0.01607   0.03636   0.05217  -3.10987
   D34       -0.01679   0.00082   0.01265   0.03552   0.04798   0.03119
   D35        0.00064  -0.00002  -0.00121  -0.00252  -0.00378  -0.00315
   D36       -3.13730  -0.00007  -0.00463  -0.00336  -0.00797   3.13791
   D37        0.02323   0.00009   0.00551   0.00110   0.00659   0.02983
   D38       -3.13970   0.00019   0.00603   0.00585   0.01192  -3.12778
   D39       -3.11961   0.00002  -0.00171   0.00140  -0.00044  -3.12006
   D40        0.00064   0.00012  -0.00119   0.00615   0.00488   0.00552
   D41        3.12132   0.00025   0.00287   0.01023   0.01310   3.13442
   D42       -0.01897   0.00017  -0.00106   0.00792   0.00688  -0.01209
   D43        0.00107   0.00014   0.00233   0.00541   0.00771   0.00878
   D44       -3.13922   0.00006  -0.00160   0.00311   0.00149  -3.13773
   D45        0.00557  -0.00035  -0.00450  -0.01423  -0.01870  -0.01314
   D46       -3.12840  -0.00016   0.00193  -0.00743  -0.00559  -3.13398
   D47       -3.13473  -0.00043  -0.00843  -0.01653  -0.02493   3.12353
   D48        0.01449  -0.00024  -0.00200  -0.00974  -0.01181   0.00268
   D49        0.00364   0.00028   0.00564   0.01150   0.01706   0.02070
   D50        3.14156   0.00033   0.00903   0.01233   0.02127  -3.12036
   D51        3.13761   0.00008  -0.00075   0.00468   0.00386   3.14147
   D52       -0.00765   0.00013   0.00264   0.00551   0.00806   0.00041
         Item               Value     Threshold  Converged?
 Maximum Force            0.008593     0.000450     NO 
 RMS     Force            0.001630     0.000300     NO 
 Maximum Displacement     0.444674     0.001800     NO 
 RMS     Displacement     0.111237     0.001200     NO 
 Predicted change in Energy=-2.366553D-03
 GradGradGradGradGradGradGradGradGradGradGradGradGradGradGradGradGradGrad

                          Input orientation:                          
 ---------------------------------------------------------------------
 Center     Atomic      Atomic             Coordinates (Angstroms)
 Number     Number       Type             X           Y           Z
 ---------------------------------------------------------------------
      1          6           0        1.125493    0.199463    0.157946
      2          7           0        2.544609   -0.140895   -0.059250
      3          6           0        3.005973   -1.235543    0.814597
      4         16           0        2.861261   -0.392841   -1.713583
      5          8           0        2.552674   -1.751005   -2.166701
      6          8           0        2.267190    0.739952   -2.424986
      7          7           0        4.572104   -0.264830   -1.624923
      8          6           0        5.284590   -0.494354   -2.852628
      9          6           0        5.776387    0.569447   -3.616218
     10          6           0        6.522929    0.323542   -4.765146
     11          6           0        6.744473   -0.994559   -5.165956
     12         17           0        7.677381   -1.311289   -6.622160
     13          6           0        6.240854   -2.063732   -4.423863
     14          6           0        5.520924   -1.810790   -3.259432
     15          1           0        1.022359    0.503558    1.202582
     16          1           0        0.449072   -0.644766   -0.040266
     17          1           0        0.858965    1.039434   -0.484227
     18          1           0        2.815684   -0.919124    1.843990
     19          1           0        4.074971   -1.392106    0.678849
     20          1           0        2.478167   -2.181859    0.625017
     21          1           0        4.770862    0.655693   -1.232412
     22          1           0        5.582115    1.592991   -3.308121
     23          1           0        6.916679    1.145441   -5.352641
     24          1           0        6.427183   -3.082869   -4.743999
     25          1           0        5.139138   -2.628524   -2.659919
 ---------------------------------------------------------------------
                    Distance matrix (angstroms):
                    1          2          3          4          5
     1  C    0.000000
     2  N    1.475435   0.000000
     3  C    2.454922   1.474693   0.000000
     4  S    2.620370   1.703104   2.668854   0.000000
     5  O    3.353380   2.652144   3.059300   1.464633   0.000000
     6  O    2.875263   2.539598   3.865653   1.463637   2.520531
     7  N    3.908109   2.564649   3.057173   1.717915   2.565217
     8  C    5.181026   3.928789   4.380638   2.679599   3.084320
     9  C    6.001001   4.858085   5.528589   3.611645   4.228229
    10  C    7.306474   6.179660   6.777408   4.820068   5.178667
    11  C    7.832150   6.666787   7.057016   5.230706   5.209503
    12  Cl   9.548794   8.413499   8.782548   6.937773   6.804932
    13  C    7.230626   6.034018   6.212231   4.643182   4.335349
    14  C    5.919409   4.678479   4.822198   3.387334   3.163565
    15  H    1.092874   2.079612   2.666408   3.562178   4.333242
    16  H    1.099798   2.155347   2.759991   2.946542   3.189142
    17  H    1.090401   2.101232   3.387050   2.751712   3.672318
    18  H    2.636424   2.073993   1.093610   3.596579   4.104490
    19  H    3.391734   2.110055   1.088897   2.862753   3.247052
    20  H    2.778233   2.153641   1.100015   2.969241   2.825752
    21  H    3.928099   2.639519   3.298765   2.231038   3.403741
    22  H    5.815241   4.773674   5.624404   3.726812   4.654317
    23  H    8.049801   6.984958   7.680985   5.661755   6.130592
    24  H    7.931626   6.758436   6.783456   5.397728   4.840263
    25  H    5.661027   4.436593   4.308485   3.329047   2.775446
                    6          7          8          9         10
     6  O    0.000000
     7  N    2.638620   0.000000
     8  C    3.288022   1.437907   0.000000
     9  C    3.709793   2.472159   1.398788   0.000000
    10  C    4.874532   3.743382   2.420778   1.392060   0.000000
    11  C    5.528789   4.217892   2.780819   2.405202   1.395393
    12  Cl   7.148009   5.975802   4.538965   4.023262   2.730189
    13  C    5.257961   3.722209   2.417885   2.793144   2.427986
    14  C    4.217744   2.441695   1.397979   2.420349   2.797600
    15  H    3.842490   4.602813   5.967174   6.769487   8.118033
    16  H    3.303011   4.433382   5.595912   6.530086   7.755891
    17  H    2.416472   4.097523   5.248618   5.849042   7.135774
    18  H    4.612758   3.942901   5.322982   6.387133   7.679099
    19  H    4.177025   2.612519   3.839331   5.018974   6.210719
    20  H    4.228948   3.622403   4.776787   6.036225   7.189645
    21  H    2.774474   1.020261   2.052225   2.588639   3.957307
    22  H    3.535015   2.702735   2.157083   1.086419   2.149315
    23  H    5.509386   4.624044   3.406276   2.155737   1.084301
    24  H    6.107153   4.594704   3.403412   3.877479   3.407822
    25  H    4.432822   2.641931   2.147784   3.398178   3.880922
                   11         12         13         14         15
    11  C    0.000000
    12  Cl   1.758171   0.000000
    13  C    1.395516   2.731719   0.000000
    14  C    2.407933   4.025885   1.392185   0.000000
    15  H    8.691675  10.431183   8.092005   6.745581   0.000000
    16  H    8.125708   9.798675   7.400954   6.119340   1.786611
    17  H    7.790695   9.470530   7.356297   6.128573   1.777409
    18  H    8.036194   9.770649   7.233802   5.844511   2.377276
    19  H    6.437859   8.141782   5.583887   4.216174   3.631292
    20  H    7.290159   8.961657   6.297853   4.948232   3.108765
    21  H    4.700133   6.431661   4.443142   3.279473   4.472540
    22  H    3.390877   4.879327   3.879489   3.404679   6.505742
    23  H    2.155020   2.868078   3.408542   3.881876   8.838890
    24  H    2.154010   2.868620   1.084365   2.154862   8.799796
    25  H    3.395168   4.886425   2.155056   1.083451   6.455751
                   16         17         18         19         20
    16  H    0.000000
    17  H    1.789313   0.000000
    18  H    3.037523   3.617360   0.000000
    19  H    3.771311   4.196169   1.779627   0.000000
    20  H    2.631061   3.772130   1.787264   1.782244   0.000000
    21  H    4.668005   4.001247   3.970770   2.886289   4.093677
    22  H    6.483407   5.530728   6.364598   5.203674   6.273242
    23  H    8.558978   7.772297   8.536515   7.133956   8.154981
    24  H    7.987944   8.132902   7.818332   6.148077   6.725539
    25  H    5.726656   6.042138   5.348428   3.715985   4.251009
                   21         22         23         24         25
    21  H    0.000000
    22  H    2.417691   0.000000
    23  H    4.671261   2.482221   0.000000
    24  H    5.389944   4.963825   4.299845   0.000000
    25  H    3.599929   4.293901   4.965201   2.491762   0.000000
 Stoichiometry    C8H11ClN2O2S
 Framework group  C1[X(C8H11ClN2O2S)]
 Deg. of freedom    69
 Full point group                 C1      NOp   1
 Largest Abelian subgroup         C1      NOp   1
 Largest concise Abelian subgroup C1      NOp   1
                         Standard orientation:                         
 ---------------------------------------------------------------------
 Center     Atomic      Atomic             Coordinates (Angstroms)
 Number     Number       Type             X           Y           Z
 ---------------------------------------------------------------------
      1          6           0        4.505312   -0.528151   -0.296797
      2          7           0        3.353831   -0.010807    0.466981
      3          6           0        3.571283    1.361187    0.962024
      4         16           0        1.906459   -0.211950   -0.407786
      5          8           0        1.648742    0.865729   -1.365564
      6          8           0        1.901128   -1.595636   -0.884878
      7          7           0        0.827899    0.013052    0.910286
      8          6           0       -0.573114   -0.007589    0.587307
      9          6           0       -1.357187   -1.140389    0.829385
     10          6           0       -2.725307   -1.115759    0.573506
     11          6           0       -3.299054    0.038712    0.039529
     12         17           0       -5.024591    0.072189   -0.295978
     13          6           0       -2.523227    1.167896   -0.225994
     14          6           0       -1.161067    1.146278    0.060764
     15          1           0        5.368283   -0.518813    0.373702
     16          1           0        4.733524    0.076602   -1.186600
     17          1           0        4.300047   -1.556165   -0.596843
     18          1           0        4.483242    1.338214    1.565170
     19          1           0        2.734185    1.665838    1.588245
     20          1           0        3.695209    2.091694    0.148984
     21          1           0        1.071971   -0.693706    1.604444
     22          1           0       -0.898927   -2.041947    1.226243
     23          1           0       -3.338605   -1.987666    0.771879
     24          1           0       -2.984475    2.060246   -0.634417
     25          1           0       -0.546660    2.020114   -0.120291
 ---------------------------------------------------------------------
 Rotational constants (GHZ):      1.8188212      0.2255186      0.2191791
 Standard basis: 6-31G(d) (6D, 7F)
 There are   240 symmetry adapted basis functions of A   symmetry.
 Integral buffers will be    131072 words long.
 Raffenetti 2 integral format.
 Two-electron integral symmetry is turned on.
   240 basis functions,   484 primitive gaussians,   240 cartesian basis functions
    61 alpha electrons       61 beta electrons
       nuclear repulsion energy      1142.4758805922 Hartrees.
 NAtoms=   25 NActive=   25 NUniq=   25 SFac= 1.00D+00 NAtFMM=   60 NAOKFM=F Big=F
 One-electron integrals computed using PRISM.
 NBasis=   240 RedAO= T  NBF=   240
 NBsUse=   240 1.00D-06 NBFU=   240
 Initial guess read from the read-write file.
 B after Tr=     0.000000    0.000000    0.000000
         Rot=    1.000000    0.000000    0.000000    0.000000 Ang=   0.00 deg.
 Initial guess orbital symmetries:
       Occupied  (A) (A) (A) (A) (A) (A) (A) (A) (A) (A) (A) (A)
                 (A) (A) (A) (A) (A) (A) (A) (A) (A) (A) (A) (A)
                 (A) (A) (A) (A) (A) (A) (A) (A) (A) (A) (A) (A)
                 (A) (A) (A) (A) (A) (A) (A) (A) (A) (A) (A) (A)
                 (A) (A) (A) (A) (A) (A) (A) (A) (A) (A) (A) (A)
                 (A)
       Virtual   (A) (A) (A) (A) (A) (A) (A) (A) (A) (A) (A) (A)
                 (A) (A) (A) (A) (A) (A) (A) (A) (A) (A) (A) (A)
                 (A) (A) (A) (A) (A) (A) (A) (A) (A) (A) (A) (A)
                 (A) (A) (A) (A) (A) (A) (A) (A) (A) (A) (A) (A)
                 (A) (A) (A) (A) (A) (A) (A) (A) (A) (A) (A) (A)
                 (A) (A) (A) (A) (A) (A) (A) (A) (A) (A) (A) (A)
                 (A) (A) (A) (A) (A) (A) (A) (A) (A) (A) (A) (A)
                 (A) (A) (A) (A) (A) (A) (A) (A) (A) (A) (A) (A)
                 (A) (A) (A) (A) (A) (A) (A) (A) (A) (A) (A) (A)
                 (A) (A) (A) (A) (A) (A) (A) (A) (A) (A) (A) (A)
                 (A) (A) (A) (A) (A) (A) (A) (A) (A) (A) (A) (A)
                 (A) (A) (A) (A) (A) (A) (A) (A) (A) (A) (A) (A)
                 (A) (A) (A) (A) (A) (A) (A) (A) (A) (A) (A) (A)
                 (A) (A) (A) (A) (A) (A) (A) (A) (A) (A) (A) (A)
                 (A) (A) (A) (A) (A) (A) (A) (A) (A) (A) (A)
[...]
 85,-0.00106491,0.00289691,-0.00282721,0.00122603,-0.00028165,0.0003668
 6,-0.00042769,0.00086988,0.00039957,-0.00356821,-0.00069262,0.00034023
 ,0.00017749,0.00005224,-0.00012875,-0.00029663,-0.00005463,0.00003491,
 0.00005014,0.00000113,0.00000708,0.00001038,0.00003376,-0.00001860,-0.
 00004382,-0.00004395,0.00001329,0.00005482,0.00000064,-0.00001386,-0.0
 0000450,-0.00000567,0.00001635,0.00006116,-0.00735977,0.02138849,-0.01
 618674,0.00123213,-0.00320390,0.00231280,0.05239575,-0.14133459,0.1785
 0460,0.00043955,-0.00092365,-0.00162563,-0.00058938,-0.00090679,-0.013
 72083,-0.05064252,-0.00172793,0.00261779,-0.00277873,0.00146084,-0.000
 91012,0.00062184,-0.00033188,0.00009202,0.00024504,0.00040221,-0.00105
 491,0.00005267,-0.00041408,0.00075802,0.00019208,-0.00004937,-0.000195
 83,-0.00004848,-0.00000399,0.00003759,-0.00001816,-0.00000199,-0.00001
 193,0.00000674,-0.00000310,-0.00001264,-0.00002010,0.00000424,0.000027
 99,0.00000366,-0.00002145,-0.00000291,0.00001383,0.00006501,0.00001369
 ,-0.00006142,0.00046049,0.00030506,-0.00016501,-0.00001849,0.00002307,
 0.00012888,-0.00016309,0.00009634,0.04863449,-0.00042171,0.00101089,0.
 00107856,0.00092266,0.00677650,0.02943818,-0.00143175,-0.09430759,-0.1
 0476965,0.00409020,-0.00464355,0.00096544,-0.00051565,0.00193438,-0.00
 050873,-0.00025662,-0.00032097,0.00254904,-0.00057753,0.00038441,-0.00
 004124,-0.00001223,-0.00007284,-0.00015532,-0.00002573,0.00001411,0.00
 002926,0.00001895,-0.00000148,-0.00000851,0.00000234,0.00001074,0.0000
 0405,-0.00000517,0.00000428,0.00000318,-0.00000031,0.00000535,0.000008
 24,-0.00001729,-0.00003116,0.00002283,0.00010792,0.00004224,-0.0004222
 9,0.00013687,-0.00038977,-0.00033338,-0.00038558,0.00016896,0.00017023
 ,-0.00195621,0.10098247,0.00138617,-0.00137979,0.00032481,-0.00032384,
 -0.00013043,-0.02528666,-0.00096684,-0.09848951,-0.27135669,-0.0032155
 5,0.00157742,0.00212504,0.00030730,-0.00064405,-0.00028245,-0.00020337
 ,0.00071806,-0.00157981,0.00066849,0.00010034,-0.00043016,-0.00019078,
 0.00016291,0.00039503,0.00008340,-0.00004828,-0.00005511,0.00001397,-0
 .00001400,-0.00001350,-0.00005589,0.00002469,0.00007050,0.00007191,-0.
 00002048,-0.00008977,0.00000591,0.00003505,-0.00000677,0.00002888,-0.0
 0005059,-0.00005107,-0.00074121,0.00056246,0.00055193,-0.00028297,-0.0
 0005138,-0.00003594,0.00020802,0.00021312,0.00029948,0.00307548,0.1017
 6968,0.30034909,0.00059901,0.00110405,-0.00255988,-0.01053674,0.005639
 46,-0.00050025,-0.29313668,0.05546834,0.06947599,-0.00222622,0.0027262
 9,0.00156900,0.00074306,-0.00111467,0.00025444,0.00024622,-0.00042126,
 -0.00044111,0.00002931,-0.00125337,0.00142542,0.00037632,-0.00002807,-
 0.00038190,-0.00007518,-0.00005236,0.00005177,-0.00001173,0.00001954,-
 0.00002570,0.00001137,0.00000047,-0.00002207,-0.00003515,0.00000788,0.
 00005451,-0.00001293,-0.00004116,-0.00000344,0.00000236,0.00011650,0.0
 0000304,0.00017505,-0.00011508,0.00013730,0.00025074,-0.00013072,0.000
 08787,-0.00050012,0.00019564,0.00037076,0.00351907,-0.00123570,0.00005
 246,0.31565387,0.00067065,-0.00259594,0.00414025,0.02468818,-0.0091287
 8,-0.00683646,0.04973141,-0.06283437,-0.01407485,0.00307144,0.00075678
 ,-0.00097949,-0.00032548,-0.00008065,0.00041343,-0.00072304,-0.0000561
 4,0.00007125,-0.00054794,-0.00024059,-0.00104637,-0.00070979,0.0002765
 8,0.00047130,0.00015320,0.00000433,-0.00015595,0.00001381,-0.00000185,
 0.00006527,-0.00002127,-0.00000927,0.00002098,0.00003532,-0.00002055,-
 0.00005604,0.00000984,-0.00003438,0.00001129,0.00010174,0.00003552,-0.
 00010991,-0.00038743,0.00014887,0.00019649,0.00050751,0.00004072,0.000
 08789,0.00156951,-0.00010922,-0.00026431,0.01193229,-0.00274403,-0.003
 11497,-0.06452898,0.06869143,-0.00077427,0.00221486,-0.00375434,-0.023
 86458,0.00794994,0.00479313,0.07782294,-0.01926384,-0.07260435,-0.0043
 7395,0.00085534,-0.00021514,0.00048967,-0.00024497,-0.00048844,0.00069
 878,-0.00003927,0.00017347,0.00030919,0.00039064,-0.00015410,0.0004948
 3,-0.00034424,-0.00052947,-0.00017420,0.00005455,0.00015145,-0.0000531
 2,-0.00002466,-0.00001612,0.00006420,-0.00001824,-0.00008520,-0.000081
 32,0.00002222,0.00010764,-0.00001357,-0.00004155,0.00000220,0.00003278
 ,0.00014173,0.00007143,0.00016113,0.00022134,0.00041642,0.00004116,-0.
 00003452,-0.00003819,-0.00116303,0.00060320,0.00064549,0.02859841,-0.0
 0533043,-0.00573602,-0.07546055,0.01303216,0.07644029,0.00395568,0.001
 47236,-0.00020928,0.00908735,0.01505461,-0.00090958,-0.14021552,-0.120
 38214,-0.00437583,-0.00061000,-0.00052848,0.00035703,-0.00013706,0.000
 92675,-0.00038498,-0.00012135,0.00005441,-0.00002800,0.00041948,-0.000
 26321,0.00085255,0.00028492,-0.00007808,-0.00029167,-0.00005500,-0.000
 00669,0.00004282,-0.00000315,0.00001749,-0.00001812,0.00000472,-0.0000
 1190,-0.00001432,-0.00001868,0.00001229,0.00003123,0.00001612,0.000006
 77,-0.00001738,-0.00005095,-0.00000044,0.00005901,-0.00024711,-0.00007
 943,-0.00003779,0.00025253,-0.00166589,0.00012135,-0.00004555,-0.00021
 781,-0.00000420,0.00040376,0.00150379,0.00021427,-0.01509105,-0.025350
 28,-0.00283975,0.14231129,-0.00333135,0.00108819,0.00035405,-0.0054271
 0,-0.02537716,0.01469076,-0.11975958,-0.21843022,-0.00938719,0.0014587
 6,-0.00435566,-0.00724916,-0.00016628,0.00218755,0.00026991,0.00020349
 ,0.00031222,0.00118158,-0.00054301,0.00039986,0.00039948,-0.00001688,-
 0.00005568,-0.00025316,-0.00005188,0.00004590,0.00004079,-0.00000543,0
 .00001391,0.00002410,0.00004255,-0.00002985,-0.00005653,-0.00005187,0.
 00002016,0.00006648,0.00000369,0.00001053,0.00000055,-0.00007726,-0.00
 002607,0.00007515,0.00010594,-0.00022465,-0.00021054,0.00150845,0.0000
 5342,-0.00027264,0.00040090,0.00038675,0.00007686,-0.00776410,-0.00885
 305,-0.00121889,0.00373305,0.00827884,-0.00009813,0.12943614,0.2444497
 1,0.00193736,-0.00118612,-0.00029688,0.00972297,0.02590198,-0.00794593
 ,-0.00580712,-0.01201227,-0.05169589,0.00081913,0.00672145,0.00562720,
 -0.00051439,-0.00189161,0.00036130,-0.00026565,-0.00102444,-0.00089320
 ,0.00038181,-0.00047922,-0.00101606,-0.00004525,0.00004236,0.00028551,
 0.00006219,-0.00001042,-0.00006625,-0.00000942,-0.00000339,0.00001231,
 -0.00000173,-0.00000275,0.00000773,0.00001634,-0.00000993,-0.00002164,
 -0.00001581,-0.00002538,-0.00000953,0.00004735,0.00004116,-0.00008582,
 -0.00041293,-0.00004505,-0.00012216,-0.00068827,-0.00049515,0.00036190
 ,-0.00003187,-0.00008463,-0.00000991,-0.01821549,-0.02460115,0.0010184
 1,0.00573760,0.00779656,0.00069462,0.00755866,0.00150145,0.05382741,-0
 .00011875,0.00058684,0.00029665,0.00017383,0.00233100,-0.00024471,0.00
 049191,-0.00032325,0.00004907,-0.00581789,-0.03910297,-0.01033596,-0.0
 0716514,-0.00395683,0.00057165,0.00130288,0.00420633,0.00088164,-0.051
 80006,-0.03017522,0.00680278,0.00280381,0.02116691,0.00419759,-0.00050
 595,0.00205668,-0.00021756,-0.00065618,-0.00024449,0.00012391,0.000220
 81,-0.00032955,-0.00011595,-0.00008843,-0.00003581,0.00012417,0.000465
 16,0.00127643,0.00012030,-0.00180143,-0.00033236,0.00505907,-0.0001172
 8,0.00003135,-0.00001702,0.00030960,-0.00005385,-0.00016816,-0.0001358
 9,-0.00002298,0.00004176,0.00005487,0.00006851,-0.00008353,-0.00003555
 ,0.00011259,0.00006202,-0.00010412,0.00027704,-0.00031433,0.06275410,-
 0.00022453,0.00060291,0.00025347,0.00129466,0.00105817,-0.00011741,-0.
 00004255,-0.00033918,0.00048684,0.00214997,-0.00912811,-0.00032119,-0.
 00173475,0.00190260,-0.00069142,0.00172123,0.00029452,0.00026282,-0.04
 717001,-0.39025106,-0.12835913,0.00181744,-0.00581573,0.00264360,-0.00
 168982,0.00251122,0.00243750,0.00024994,-0.00018899,-0.00020790,-0.000
 07687,0.00019106,0.00017927,-0.00007693,0.00002148,0.00010460,-0.00043
 374,-0.00067974,-0.00018303,0.00010576,0.00156219,-0.00092153,-0.00001
 657,0.00001597,-0.00006845,0.00030283,-0.00005929,-0.00009582,0.000075
 09,0.00002008,0.00002217,-0.00000816,0.00001968,-0.00003064,-0.0000702
 0,-0.00033473,0.00003694,0.00010663,0.00009849,-0.00010379,0.04350841,
 0.39838210,-0.00008552,-0.00044823,-0.00032383,-0.00089513,-0.00066331
 ,-0.00205480,0.00047255,0.00035748,-0.00060373,-0.01019686,-0.00321705
 ,0.00373538,0.00273713,0.00150547,0.00165633,0.00236664,0.00150177,-0.
 00037845,0.01297404,-0.09430610,-0.06018185,-0.00222751,-0.03043306,-0
 .01160485,-0.00157988,-0.00155612,0.00155644,-0.00012420,-0.00024313,-
 0.00019747,0.00011197,0.00035065,-0.00008630,-0.00004074,0.00011107,0.
 00000832,0.00024354,-0.00104970,0.00105854,0.00305631,0.00097395,-0.00
 325205,0.00017190,0.00000243,-0.00010513,-0.00024035,0.00004836,0.0000
 9203,-0.00004296,0.00008606,0.00010992,0.00012698,0.00009155,-0.000201
 92,0.00020517,0.00043486,0.00017309,-0.00014090,0.00003527,-0.00000814
 ,-0.00728065,0.12478164,0.07135579,-0.00002880,0.00000308,0.00001612,-
 0.00000652,0.00007344,-0.00009385,0.00003248,-0.00004302,0.00001463,-0
 .00071694,-0.00080393,0.00043520,-0.00005172,0.00016971,0.00002005,0.0
 0006283,0.00026942,-0.00020826,-0.00113597,0.00040182,-0.00295932,0.00
 571166,-0.01397997,-0.00502664,-0.04843798,0.03301721,0.02453431,0.000
 31848,0.01909503,0.00478067,0.00269822,-0.00046766,0.00536226,-0.00025
 169,0.00072549,0.00076805,-0.00070293,-0.00023305,0.00050687,0.0014456
 4,-0.00236988,0.00388527,0.00000348,-0.00000089,-0.00001088,0.00001147
 ,0.00000563,-0.00000148,-0.00001401,0.00000424,0.00000773,0.00000879,0
 .00000379,-0.00001862,0.00001285,-0.00001743,0.00002365,0.00000520,0.0
 0001323,-0.00001059,0.00040943,0.00016010,0.00057468,0.04259954,-0.000
 03946,-0.00001390,-0.00000048,0.00001389,0.00012047,-0.00003287,0.0000
 2486,-0.00003696,0.00000965,-0.00059052,-0.00064939,0.00017107,0.00008
 080,0.00048503,0.00015086,0.00015177,0.00028066,-0.00011995,0.00150648
 ,0.00170734,-0.00099367,0.00569934,-0.01870867,-0.01017355,0.03261930,
 -0.30818918,-0.07812122,-0.00022824,-0.00197286,-0.00050239,-0.0000419
 4,0.00195923,-0.00058348,0.00006272,-0.00014594,-0.00008071,-0.0002962
 2,0.00052554,0.00059806,-0.00330957,-0.00175651,0.00312941,0.00000094,
 -0.00000207,-0.00000396,0.00000868,0.00000816,-0.00000143,-0.00001270,
 0.00000247,0.00000701,-0.00000772,0.00000561,-0.00000387,-0.00000062,-
 0.00002365,0.00000018,0.00001361,0.00001375,-0.00001022,-0.00097956,-0
 .00000867,0.00162267,-0.03553318,0.32659340,0.00004255,-0.00003320,0.0
 0002990,-0.00018250,0.00001537,0.00006247,-0.00001844,0.00001211,-0.00
 002346,0.00017138,-0.00004242,0.00042986,-0.00012742,-0.00015135,-0.00
 007116,-0.00017807,0.00014651,-0.00020453,-0.00288424,0.00195292,0.000
 52580,-0.00020516,0.01383806,0.00552581,0.02297442,-0.07874364,-0.0727
 4422,0.00235395,-0.02470778,-0.00442620,0.00546780,0.00017405,0.000121
 19,0.00066334,-0.00101659,-0.00078172,0.00030575,0.00026725,-0.0006445
 9,0.00360882,0.00196203,0.00061314,-0.00001023,0.00000282,0.00000417,-
 0.00001766,-0.00000098,0.00000556,0.00000080,0.,-0.00000297,0.00000675
 ,-0.00000042,-0.00000039,0.00000553,0.00000383,0.00000635,-0.00000302,
 -0.00001129,0.00000758,0.00039311,-0.00026398,-0.00044144,-0.02948703,
 0.08545086,0.07263192,0.00003611,-0.00002778,0.00002826,-0.00015969,0.
 00005274,0.00002937,-0.00000956,0.00001625,-0.00001660,0.00071373,-0.0
 0000208,0.00022845,-0.00008269,-0.00005680,-0.00004641,-0.00009334,0.0
 0007628,-0.00005884,-0.00074142,-0.00050105,0.00062878,0.00325849,0.00
 123925,0.00502887,-0.00523771,-0.01430614,0.00750811,-0.10575834,-0.10
 288435,0.07453979,0.00408500,0.00390141,-0.00132277,-0.00105916,0.0006
 8216,-0.00191754,0.00350069,0.00082899,0.00236025,-0.00046498,0.000559
 00,-0.00011733,-0.00001400,0.00000113,0.00000690,-0.00001505,0.0000014
 8,0.00000557,0.00000120,-0.00000194,-0.00000353,-0.00000173,0.00000017
 ,0.00000508,-0.00000220,0.00000823,-0.00000971,-0.00000227,-0.00000513
 ,0.00000322,-0.00008293,-0.00004153,-0.00009316,-0.00199870,0.00039562
 ,-0.00244152,0.10408049,0.00001183,0.00000086,-0.00001398,0.00004325,-
 0.00001108,0.00000271,0.00000322,0.00000087,0.00000048,0.00001000,0.00
 001289,-0.00017315,-0.00002535,0.00002364,0.00003070,-0.00004931,0.000
 00684,0.00000026,0.00028835,0.00028360,-0.00009251,0.00076709,0.000782
 57,-0.00204966,0.00409306,0.00906809,-0.00426503,-0.10145912,-0.219862
 35,0.09939532,-0.01524751,-0.01776819,0.01609552,0.00005458,0.00116284
 ,0.00055543,0.00154096,-0.00428098,-0.00344121,0.00068191,-0.00001017,
 -0.00074375,0.00000209,-0.00000045,0.00000094,-0.00000056,-0.00000214,
 -0.00000049,0.00000114,-0.00000039,-0.00000106,-0.00000161,0.00000085,
 0.00000308,-0.00000414,0.00000001,-0.00000282,-0.00000028,-0.00000149,
 -0.00000030,0.00001549,-0.00000176,0.00001840,0.00018642,0.00080693,0.
 00049165,0.10988679,0.23059909,-0.00005158,0.00005064,-0.00003566,0.00
 021831,-0.00003653,-0.00014441,0.00003213,-0.00004780,0.00002983,-0.00
 072411,-0.00016010,-0.00022827,0.00011321,0.00013150,0.00004148,0.0001
 3655,-0.00003857,0.00003221,0.00102853,0.00110929,-0.00034820,0.005210
 72,-0.00282962,0.00039151,0.01010199,0.01931270,-0.00788848,0.07479374
 ,0.10175574,-0.11321459,-0.00468235,-0.00911182,0.00685053,-0.00191331
 ,-0.00020874,-0.00015564,0.00268706,-0.00244246,0.00134145,-0.00005251
 ,-0.00056801,-0.00057389,0.00001853,-0.00000264,-0.00001383,0.00002461
 ,-0.00000128,-0.00000630,-0.00000363,0.00000587,0.00000973,0.00000579,
 0.00000277,-0.00001550,0.00000296,-0.00000989,0.00002444,0.00000211,0.
 00001209,-0.00000651,0.00004898,0.00000834,0.00011296,-0.00252010,0.00
 014930,-0.00093828,-0.08392834,-0.10674240,0.11437780,0.00003264,-0.00
 001852,0.00000328,-0.00008667,-0.00002130,0.00004245,-0.00000472,0.000
 02226,-0.00001722,0.00058705,0.00023709,0.00006984,-0.00015804,-0.0001
 4249,-0.00003053,-0.00013847,-0.00001178,-0.00005258,-0.00000894,0.001
 12497,0.00043894,0.00290883,-0.00099234,0.00584331,-0.00061769,-0.0001
 8740,0.00038353,0.00150078,-0.00218411,0.00409581,0.00423031,-0.014881
 75,-0.00464755,-0.00106651,-0.00004807,-0.00184514,-0.04832399,0.03283
 997,0.02205949,0.00083616,0.01813487,0.00521592,-0.00000551,-0.0000000
 1,0.00000293,-0.00001536,-0.00000267,0.00000534,0.00000209,-0.00000013
 ,-0.00000212,-0.00000185,-0.00000270,0.00000307,-0.00000004,0.00001089
 ,-0.00000353,-0.00000835,-0.00000891,0.00000772,-0.00037933,0.00009287
 ,0.00014605,-0.00040337,0.00010742,-0.00043327,0.00049676,-0.00080824,
 -0.00016891,0.04281043,-0.00003063,0.00001626,-0.00000403,0.00005244,-
 0.00000104,-0.00004661,0.00000884,-0.00001800,0.00001071,-0.00035203,-
 0.00010096,0.00004296,0.00009658,0.00003657,-0.00000054,0.00011803,-0.
 00001937,0.00002925,0.00008156,-0.00008984,-0.00012989,-0.00045254,0.0
 0184997,-0.00039702,-0.00028170,0.00062356,0.00052271,-0.00302919,-0.0
 0158435,0.00286160,0.00496748,-0.01842226,-0.00978991,0.00052975,0.001
 25072,-0.00005430,0.03111836,-0.31366780,-0.08505809,-0.00008823,-0.00
 058468,-0.00053420,0.00000566,-0.00000079,-0.00000531,0.00001054,0.000
 00217,-0.00000276,-0.00000287,0.00000174,0.00000415,0.00000247,0.00000
 017,-0.00000702,0.00000496,-0.00000565,0.00000915,0.00000227,0.0000065
 3,-0.00000291,0.00007394,0.00001375,0.00001870,0.00010200,-0.00005014,
 -0.00002277,0.00018009,-0.00084916,-0.00048251,-0.03355481,0.33084536,
 -0.00002452,0.00002540,-0.00001832,0.00011064,0.00005248,-0.00007881,0
 .00002673,-0.00003844,0.00001853,-0.00057376,-0.00035612,0.00004704,0.
 00000693,0.00021511,0.00004881,0.00010903,0.00003842,0.00000184,0.0002
 0431,-0.00111340,-0.00012260,0.00579897,0.00007405,-0.00042110,0.00041
 106,0.00035293,-0.00081368,0.00383047,0.00210720,0.00047642,-0.0015938
 7,0.01491450,0.00707193,-0.00180327,0.00074946,-0.00015248,0.02211375,
 -0.08714628,-0.07775396,0.00251176,-0.02385404,-0.00380638,0.00000672,
 -0.00000248,-0.00000544,0.00001552,-0.00000041,-0.00000377,-0.00000521
 ,0.00000368,0.00000464,0.00000194,0.00000511,-0.00000777,-0.00000110,-
 0.00001822,0.00001538,0.00000792,0.00001225,-0.00001042,0.00017955,-0.
 00011414,-0.00025988,-0.00042914,-0.00002351,-0.00022850,-0.00000366,0
 .00079722,0.00060720,-0.02840033,0.09279278,0.07628193,-0.00014187,0.0
 0004892,0.00003997,-0.00025121,-0.00042148,-0.00035930,0.00014217,-0.0
 0010275,0.00007942,0.00060593,0.00446394,0.00149707,-0.00181871,-0.001
 52278,0.00021717,-0.00032249,-0.00081951,-0.00007705,-0.00302090,0.000
 08915,-0.00118134,0.00627393,0.00409142,-0.00247737,0.00285492,0.00070
 900,0.00274280,-0.00024021,0.00033628,-0.00019963,0.00353020,0.0010000
 3,0.00493392,-0.00029004,-0.00032307,0.00053020,-0.00502413,-0.0129207
 8,0.00764103,-0.10337007,-0.10508166,0.07427919,0.00002356,-0.00000655
 ,-0.00003153,0.00002035,0.00001520,0.00002084,-0.00000849,0.00001737,0
 .00001300,0.00000213,-0.00001100,-0.00004180,0.00004434,-0.00000498,0.
 00001280,-0.00003088,0.00002554,0.00003853,-0.00017749,0.00000073,-0.0
 0023911,0.00042856,0.00035429,-0.00000566,-0.00044871,0.00000993,-0.00
 038042,-0.00218619,0.00043705,-0.00250045,0.10340530,0.00016839,-0.000
 00856,-0.00002010,0.00012080,0.00027229,0.00027019,0.00003309,0.000101
 48,-0.00006902,0.00043846,-0.00366431,-0.00106625,-0.00187587,0.001677
 53,0.00109295,0.00008539,0.00059508,-0.00003902,0.00053409,0.00198917,
 0.00082962,-0.01512907,-0.01745202,0.01618721,0.00136556,-0.00402160,-
 0.00334492,0.00069819,-0.00007128,-0.00069860,0.00052087,0.00086702,-0
 .00185254,0.00046610,0.00018785,-0.00050585,0.00419184,0.00970875,-0.0
 0485673,-0.10047370,-0.22507546,0.10258336,-0.00002917,0.00000401,0.00
 002848,-0.00001664,-0.00001770,-0.00001351,-0.00000359,-0.00001017,-0.
 00001381,-0.00002392,0.00000380,0.00003707,-0.00001985,-0.00001328,-0.
 00008959,-0.00002251,-0.00001197,-0.00001626,-0.00015467,0.00011303,-0
 .00002363,-0.00078160,-0.00095065,0.00067699,-0.00000282,0.00003904,0.
 00014414,0.00029490,0.00074722,0.00052644,0.10961574,0.23499072,0.0000
 5150,-0.00001326,0.00000152,-0.00027343,-0.00005148,-0.00010836,0.0001
 4009,-0.00005116,0.00002647,0.00085542,-0.00045696,0.00061411,0.001039
 44,-0.00009372,-0.00085132,-0.00009671,0.00015121,-0.00012302,-0.00228
 028,0.00153666,-0.00066873,-0.00486098,-0.00877292,0.00962334,0.002689
 41,-0.00260621,0.00148306,-0.00002175,-0.00078819,-0.00058910,0.005214
 24,-0.00208457,0.00040931,0.00080452,0.00048975,-0.00082039,0.01078558
 ,0.01943697,-0.00771784,0.07405278,0.10309047,-0.11845782,-0.00000780,
 -0.00000164,0.00000582,-0.00001409,-0.00000144,0.00001455,-0.00001136,
 0.00000848,-0.00000084,-0.00003663,0.00003299,0.00001521,-0.00003783,-
 0.00007912,-0.00009403,0.00002786,0.00001676,-0.00001564,-0.00017439,0
 .00026124,-0.00015898,-0.00016357,-0.00063775,0.00054372,-0.00041324,0
 .00013467,-0.00024960,-0.00271650,0.00024585,-0.00089064,-0.08455228,-
 0.10976664,0.11800920\\-0.00002928,-0.00000049,0.00000608,0.00002145,0
 .00001890,-0.00002636,0.00000104,-0.00002537,0.00001367,0.00001341,0.0
 0001891,0.00001868,-0.00000376,-0.00004612,-0.00001181,-0.00001077,0.0
 0001701,-0.00000079,0.00000152,0.00000556,0.00000112,-0.00000209,-0.00
 001009,0.00000671,-0.00000038,0.00000373,-0.00000442,0.00000367,0.0000
 0565,-0.00000131,-0.00001000,-0.00000044,0.00001819,0.00000536,-0.0000
 0150,-0.00000729,0.00000376,-0.00000195,-0.00000603,-0.00000558,0.0000
 0836,0.00000579,0.00000269,0.00000005,-0.00000240,0.00000549,0.0000003
 0,-0.00000219,0.00000219,0.00000053,-0.00000230,-0.00000028,0.00000203
 ,-0.00000281,0.00000230,0.00000281,0.00000143,0.00000014,0.00000578,-0
 .00000294,0.00000291,0.00000027,-0.00000446,-0.00000047,-0.00000083,-0
 .00000006,0.00000093,-0.00000157,-0.00000009,-0.00000034,0.00000025,0.
 00000162,-0.00000392,-0.00000178,0.00000197\\\@


      THE ONE-EYED VIEW OF OUR UNIVERSE SAYS YOU MUST NOT LOOK
      FAR AFIELD FOR PROBLEMS.  SUCH PROBLEMS MAY NEVER ARRIVE. 
      INSTEAD, TEND TO THE WOLF WITHIN YOUR FENCES.
      THE PACKS RANGING OUTSIDE MAY NOT EVEN EXIST.

                              -- THE AZHAR BOOK SHAMRA I:4
                                 CHILDREN OF DUNE, BY FRANK HERBERT
 Job cpu time:  0 days  1 hours 36 minutes 36.5 seconds.
 File lengths (MBytes):  RWF=    203 Int=      0 D2E=      0 Chk=      5 Scr=      1
 Normal termination of Gaussian 09 at Fri Aug 24 15:25:06 2018.
