 Entering Gaussian System, Link 0=g09
 Initial command:
 /home/fb_chem/chemsoft/lx24-amd64/Gaussian_09_C.01_NBO_3.1_64_istanbul-64/g09/l1.exe /local/2659153.1.parallel/Gau-16435.inp -scrdir=/local/2659153.1.parallel/
 Entering Link 1 = /home/fb_chem/chemsoft/lx24-amd64/Gaussian_09_C.01_NBO_3.1_64_istanbul-64/g09/l1.exe PID=     16440.
  
 Copyright (c) 1988,1990,1992,1993,1995,1998,2003,2009,2011,
            Gaussian, Inc.  All Rights Reserved.
  
 This is part of the Gaussian(R) 09 program.  It is based on
 the Gaussian(R) 03 system (copyright 2003, Gaussian, Inc.),
 the Gaussian(R) 98 system (copyright 1998, Gaussian, Inc.),
 the Gaussian(R) 94 system (copyright 1995, Gaussian, Inc.),
 the Gaussian 92(TM) system (copyright 1992, Gaussian, Inc.),
 the Gaussian 90(TM) system (copyright 1990, Gaussian, Inc.),
 the Gaussian 88(TM) system (copyright 1988, Gaussian, Inc.),
 the Gaussian 86(TM) system (copyright 1986, Carnegie Mellon
 University), and the Gaussian 82(TM) system (copyright 1983,
 Carnegie Mellon University). Gaussian is a federally registered
 trademark of Gaussian, Inc.
  
 This software contains proprietary and confidential information,
 including trade secrets, belonging to Gaussian, Inc.
  
 This software is provided under written license and may be
 used, copied, transmitted, or stored only in accord with that
 written license.
  
 The following legend is applicable only to US Government
 contracts under FAR:
  
                    RESTRICTED RIGHTS LEGEND
  
 Use, reproduction and disclosure by the US Government is
 subject to restrictions as set forth in subparagraphs (a)
 and (c) of the Commercial Computer Software - Restricted
 Rights clause in FAR 52.227-19.
  
 Gaussian, Inc.
 340 Quinnipiac St., Bldg. 40, Wallingford CT 06492
  
  
 ---------------------------------------------------------------
 Warning -- This program may not be used in any manner that
 competes with the business of Gaussian, Inc. or will provide
 assistance to any competitor of Gaussian, Inc.  The licensee
 of this program is prohibited from giving any competitor of
 Gaussian, Inc. access to this program.  By using this program,
 the user acknowledges that Gaussian, Inc. is engaged in the
 business of creating and licensing software in the field of
 computational chemistry and represents and warrants to the
 licensee that it is not a competitor of Gaussian, Inc. and that
 it will not use this program in any manner prohibited above.
 ---------------------------------------------------------------
  

 Cite this work as:
 Gaussian 09, Revision C.01,
 M. J. Frisch, G. W. Trucks, H. B. Schlegel, G. E. Scuseria, 
 M. A. Robb, J. R. Cheeseman, G. Scalmani, V. Barone, B. Mennucci, 
 G. A. Petersson, H. Nakatsuji, M. Caricato, X. Li, H. P. Hratchian, 
 A. F. Izmaylov, J. Bloino, G. Zheng, J. L. Sonnenberg, M. Hada, 
 M. Ehara, K. Toyota, R. Fukuda, J. Hasegawa, M. Ishida, T. Nakajima, 
 Y. Honda, O. Kitao, H. Nakai, T. Vreven, J. A. Montgomery, Jr., 
 J. E. Peralta, F. Ogliaro, M. Bearpark, J. J. Heyd, E. Brothers, 
 K. N. Kudin, V. N. Staroverov, T. Keith, R. Kobayashi, J. Normand, 
 K. Raghavachari, A. Rendell, J. C. Burant, S. S. Iyengar, J. Tomasi, 
 M. Cossi, N. Rega, J. M. Millam, M. Klene, J. E. Knox, J. B. Cross, 
 V. Bakken, C. Adamo, J. Jaramillo, R. Gomperts, R. E. Stratmann, 
 O. Yazyev, A. J. Austin, R. Cammi, C. Pomelli, J. W. Ochterski, 
 R. L. Martin, K. Morokuma, V. G. Zakrzewski, G. A. Voth, 
 P. Salvador, J. J. Dannenberg, S. Dapprich, A. D. Daniels, 
 O. Farkas, J. B. Foresman, J. V. Ortiz, J. Cioslowski, 
 and D. J. Fox, Gaussian, Inc., Wallingford CT, 2010.
 
 ******************************************
 Gaussian 09:  AM64L-G09RevC.01 23-Sep-2011
                24-Aug-2018 
 ******************************************
 %nprocs=2
 Will use up to    2 processors via shared memory.
 %chk=frag48-conf0.chk
 ----------------------------------------------------------------------
 #HF/6-31G* Geom=AllCheck Guess=Read Pop=(MK,ReadRadii) Integral=(Grid=
 UltraFine) iop(6/33=2)
 ----------------------------------------------------------------------
 1/29=7,38=1/1;
 2/12=2,40=1/2;
 3/5=1,6=6,7=1,11=9,14=-4,16=1,25=1,30=1,75=-5,116=-2/1,2,3;
 4/5=1/1;
 5/5=2,38=6/2;
 6/7=2,8=2,9=2,10=2,15=8,20=101,28=1,33=2/1,2;
 99/5=1,9=1/99;
 Structure from the checkpoint file:  frag48-conf0.chk
 -----------------------------
 Optimization for frag48-conf0
 -----------------------------
 Charge =  0 Multiplicity = 1
 Redundant internal coordinates found in file.
 C,0,1.1558758268,0.2358228775,0.2368071988
 N,0,2.5156574221,-0.214210384,-0.1019598902
 C,0,3.0428603937,-1.2499551733,0.7990799659
 S,0,2.757682203,-0.5389878165,-1.7421963795
 O,0,2.6482048206,-1.9617879768,-2.0667310068
 O,0,1.9702467892,0.442807482,-2.4884142915
 N,0,4.4264255895,-0.1609904241,-1.7607342812
 C,0,5.2050530187,-0.4477116794,-2.9250583063
 C,0,5.8520471253,0.5962484256,-3.5964276658
 C,0,6.6851322392,0.3326629587,-4.682008339
 C,0,6.847191767,-0.9827774961,-5.1110144282
 Cl,0,7.8864314671,-1.324365951,-6.4877680844
 C,0,6.1977743636,-2.031804707,-4.4605280246
 C,0,5.3871800388,-1.7669903702,-3.3595207071
 H,0,1.193732454,0.6570448708,1.2458258162
 H,0,0.4240629951,-0.5846719303,0.2238346549
 H,0,0.8430750108,1.0107224737,-0.4618741949
 H,0,3.0544948148,-0.8342524923,1.8110941751
 H,0,4.066061522,-1.4969582469,0.5121266161
 H,0,2.4323116656,-2.1627795356,0.7894083663
 H,0,4.5194744547,0.805610553,-1.4548260153
 H,0,5.7054628732,1.6235344389,-3.2718529406
 H,0,7.1908175938,1.1425102374,-5.1965405812
 H,0,6.3358555198,-3.0516227932,-4.8031589792
 H,0,4.8889254924,-2.5766617299,-2.8410133974
 Recover connectivity data from disk.
                          Input orientation:                          
 ---------------------------------------------------------------------
 Center     Atomic      Atomic             Coordinates (Angstroms)
 Number     Number       Type             X           Y           Z
 ---------------------------------------------------------------------
      1          6           0        1.155876    0.235823    0.236807
      2          7           0        2.515657   -0.214210   -0.101960
      3          6           0        3.042860   -1.249955    0.799080
      4         16           0        2.757682   -0.538988   -1.742196
      5          8           0        2.648205   -1.961788   -2.066731
      6          8           0        1.970247    0.442807   -2.488414
      7          7           0        4.426426   -0.160990   -1.760734
      8          6           0        5.205053   -0.447712   -2.925058
      9          6           0        5.852047    0.596248   -3.596428
     10          6           0        6.685132    0.332663   -4.682008
     11          6           0        6.847192   -0.982777   -5.111014
     12         17           0        7.886431   -1.324366   -6.487768
     13          6           0        6.197774   -2.031805   -4.460528
     14          6           0        5.387180   -1.766990   -3.359521
     15          1           0        1.193732    0.657045    1.245826
     16          1           0        0.424063   -0.584672    0.223835
     17          1           0        0.843075    1.010722   -0.461874
     18          1           0        3.054495   -0.834252    1.811094
     19          1           0        4.066062   -1.496958    0.512127
     20          1           0        2.432312   -2.162780    0.789408
     21          1           0        4.519474    0.805611   -1.454826
     22          1           0        5.705463    1.623534   -3.271853
     23          1           0        7.190818    1.142510   -5.196541
     24          1           0        6.335856   -3.051623   -4.803159
     25          1           0        4.888925   -2.576662   -2.841013
 ---------------------------------------------------------------------
                    Distance matrix (angstroms):
                    1          2          3          4          5
     1  C    0.000000
     2  N    1.471835   0.000000
     3  C    2.466657   1.470572   0.000000
     4  S    2.661310   1.689506   2.654221   0.000000
     5  O    3.516081   2.632854   2.979149   1.463444   0.000000
     6  O    2.851820   2.534622   3.850138   1.463153   2.533678
     7  N    3.852808   2.530889   3.106887   1.711120   2.549230
     8  C    5.182707   3.906054   4.380397   2.719764   3.092996
     9  C    6.072695   4.898943   5.533578   3.781802   4.375857
    10  C    7.401135   6.217752   6.768541   4.982683   5.329255
    11  C    7.904129   6.666597   7.033743   5.316951   5.278031
    12  Cl   9.641290   8.417613   8.750078   7.031454   6.884104
    13  C    7.254504   5.988218   6.182900   4.631637   4.281893
    14  C    5.903285   4.611775   4.801783   3.322347   3.035002
    15  H    1.094066   2.079206   2.693604   3.578367   4.466185
    16  H    1.099514   2.148988   2.762537   3.051744   3.477060
    17  H    1.089252   2.104170   3.397017   2.776067   3.830128
    18  H    2.688530   2.081964   1.094128   3.577870   4.058810
    19  H    3.398163   2.103877   1.091006   2.776965   2.979411
    20  H    2.772715   2.144389   1.098231   3.025159   2.871331
    21  H    3.807897   2.624036   3.389075   2.234824   3.396259
    22  H    5.910599   4.858023   5.649680   3.963050   4.863505
    23  H    8.170916   7.046458   7.673129   5.866227   6.329906
    24  H    7.939820   6.689252   6.743508   5.337242   4.719592
    25  H    5.596312   4.326198   4.291665   3.146699   2.449166
                    6          7          8          9         10
     6  O    0.000000
     7  N    2.631901   0.000000
     8  C    3.383438   1.429727   0.000000
     9  C    4.039754   2.444499   1.399711   0.000000
    10  C    5.201359   3.725492   2.426209   1.393554   0.000000
    11  C    5.717947   4.214240   2.785914   2.403666   1.393088
    12  Cl   7.356560   5.972431   4.544361   4.023348   2.729402
    13  C    5.280618   3.731824   2.419197   2.787985   2.424310
    14  C    4.161426   2.461382   1.400865   2.420150   2.800392
    15  H    3.820134   4.489865   5.891303   6.719450   8.087021
    16  H    3.286745   4.487419   5.726443   6.741809   8.006859
    17  H    2.387448   3.987524   5.217390   5.923429   7.238710
    18  H    4.614353   3.885027   5.215885   6.254113   7.530179
    19  H    4.142267   2.660934   3.769942   4.944843   6.098039
    20  H    4.212684   3.806163   4.942349   6.208251   7.365468
    21  H    2.774616   1.018114   2.049980   2.531016   3.915158
    22  H    3.994963   2.665323   2.158874   1.087268   2.148171
    23  H    5.922659   4.598450   3.410528   2.156634   1.084580
    24  H    6.052076   4.610643   3.403870   3.872626   3.404418
    25  H    4.214286   2.686332   2.153933   3.400825   3.883271
                   11         12         13         14         15
    11  C    0.000000
    12  Cl   1.758452   0.000000
    13  C    1.394752   2.731618   0.000000
    14  C    2.411297   4.028412   1.392626   0.000000
    15  H    8.663720  10.417614   8.051883   6.683574   0.000000
    16  H    8.359168  10.063782   7.574509   6.234649   1.782896
    17  H    7.850985   9.558918   7.342956   6.063080   1.778845
    18  H    7.894441   9.615557   7.116712   5.748624   2.450700
    19  H    6.294345   7.976437   5.436686   4.099747   3.664467
    20  H    7.463147   9.132779   6.462019   5.108964   3.113488
    21  H    4.688743   6.419011   4.461150   3.316482   4.286741
    22  H    3.388056   4.877382   3.875155   3.406560   6.457494
    23  H    2.154586   2.869952   3.406483   3.884964   8.815032
    24  H    2.153221   2.868032   1.084662   2.152756   8.762754
    25  H    3.395317   4.883862   2.152390   1.082901   6.388550
                   16         17         18         19         20
    16  H    0.000000
    17  H    1.786351   0.000000
    18  H    3.082346   3.668882   0.000000
    19  H    3.765572   4.198188   1.774757   0.000000
    20  H    2.615982   3.763309   1.787719   1.785873   0.000000
    21  H    4.639308   3.813651   3.937201   3.062076   4.266635
    22  H    6.707398   5.649277   6.237363   5.171423   6.445428
    23  H    8.840396   7.920118   8.373990   7.022804   8.330660
    24  H    8.142837   8.094445   7.709241   5.985082   6.877827
    25  H    5.770296   5.907498   5.295586   3.617515   4.402978
                   21         22         23         24         25
    21  H    0.000000
    22  H    2.318869   0.000000
    23  H    4.609773   2.478323   0.000000
    24  H    5.421146   4.959777   4.298425   0.000000
    25  H    3.673932   4.300466   4.967842   2.483789   0.000000
 Stoichiometry    C8H11ClN2O2S
 Framework group  C1[X(C8H11ClN2O2S)]
 Deg. of freedom    69
 Full point group                 C1      NOp   1
 Largest Abelian subgroup         C1      NOp   1
 Largest concise Abelian subgroup C1      NOp   1
                         Standard orientation:                         
 ---------------------------------------------------------------------
 Center     Atomic      Atomic             Coordinates (Angstroms)
 Number     Number       Type             X           Y           Z
 ---------------------------------------------------------------------
      1          6           0        4.548275   -0.560521   -0.151842
      2          7           0        3.319428   -0.079820    0.500200
      3          6           0        3.501455    1.153496    1.280187
      4         16           0        1.955341   -0.070208   -0.496599
      5          8           0        1.675506    1.245959   -1.071981
      6          8           0        2.060159   -1.240776   -1.368150
      7          7           0        0.811762   -0.309694    0.753523
      8          6           0       -0.584652   -0.199499    0.467161
      9          6           0       -1.421412   -1.301205    0.679927
     10          6           0       -2.797755   -1.193557    0.489961
     11          6           0       -3.331798    0.018636    0.058594
     12         17           0       -5.065884    0.160908   -0.196074
     13          6           0       -2.508649    1.120934   -0.170967
     14          6           0       -1.136909    1.016959    0.045658
     15          1           0        5.276698   -0.767771    0.637732
     16          1           0        4.977096    0.179749   -0.842525
     17          1           0        4.337695   -1.481606   -0.693808
     18          1           0        4.249808    0.950138    2.052023
     19          1           0        2.562060    1.419328    1.767183
     20          1           0        3.839926    1.994293    0.660018
     21          1           0        1.049618   -1.185332    1.215302
     22          1           0       -0.997827   -2.251545    0.995491
     23          1           0       -3.445038   -2.046646    0.661940
     24          1           0       -2.938490    2.059702   -0.503295
     25          1           0       -0.491964    1.871263   -0.118315
 ---------------------------------------------------------------------
 Rotational constants (GHZ):      1.8164797      0.2213514      0.2163724
 Standard basis: 6-31G(d) (6D, 7F)
 There are   240 symmetry adapted basis functions of A   symmetry.
 Integral buffers will be    131072 words long.
 Raffenetti 1 integral format.
 Two-electron integral symmetry is turned on.
   240 basis functions,   484 primitive gaussians,   240 cartesian basis functions
    61 alpha electrons       61 beta electrons
       nuclear repulsion energy      1139.9047005903 Hartrees.
 NAtoms=   25 NActive=   25 NUniq=   25 SFac= 1.00D+00 NAtFMM=   60 NAOKFM=F Big=F
 One-electron integrals computed using PRISM.
 NBasis=   240 RedAO= T  NBF=   240
 NBsUse=   240 1.00D-06 NBFU=   240
 Initial guess read from the checkpoint file:  frag48-conf0.chk
 B after Tr=     0.000000    0.000000    0.000000
         Rot=    1.000000    0.000000    0.000000    0.000000 Ang=   0.00 deg.
 Initial guess orbital symmetries:
       Occupied  (A) (A) (A) (A) (A) (A) (A) (A) (A) (A) (A) (A)
                 (A) (A) (A) (A) (A) (A) (A) (A) (A) (A) (A) (A)
                 (A) (A) (A) (A) (A) (A) (A) (A) (A) (A) (A) (A)
                 (A) (A) (A) (A) (A) (A) (A) (A) (A) (A) (A) (A)
                 (A) (A) (A) (A) (A) (A) (A) (A) (A) (A) (A) (A)
                 (A)
       Virtual   (A) (A) (A) (A) (A) (A) (A) (A) (A) (A) (A) (A)
                 (A) (A) (A) (A) (A) (A) (A) (A) (A) (A) (A) (A)
                 (A) (A) (A) (A) (A) (A) (A) (A) (A) (A) (A) (A)
                 (A) (A) (A) (A) (A) (A) (A) (A) (A) (A) (A) (A)
                 (A) (A) (A) (A) (A) (A) (A) (A) (A) (A) (A) (A)
                 (A) (A) (A) (A) (A) (A) (A) (A) (A) (A) (A) (A)
                 (A) (A) (A) (A) (A) (A) (A) (A) (A) (A) (A) (A)
                 (A) (A) (A) (A) (A) (A) (A) (A) (A) (A) (A) (A)
                 (A) (A) (A) (A) (A) (A) (A) (A) (A) (A) (A) (A)
                 (A) (A) (A) (A) (A) (A) (A) (A) (A) (A) (A) (A)
                 (A) (A) (A) (A) (A) (A) (A) (A) (A) (A) (A) (A)
                 (A) (A) (A) (A) (A) (A) (A) (A) (A) (A) (A) (A)
                 (A) (A) (A) (A) (A) (A) (A) (A) (A) (A) (A) (A)
                 (A) (A) (A) (A) (A) (A) (A) (A) (A) (A) (A) (A)
                 (A) (A) (A) (A) (A) (A) (A) (A) (A) (A) (A)
 Requested convergence on RMS density matrix=1.00D-08 within 128 cycles.
 Requested convergence on MAX density matrix=1.00D-06.
 Requested convergence on             energy=1.00D-06.
 No special actions if energy rises.
 SCF Done:  E(RHF) =  -1424.86681324     A.U. after   13 cycles
             Convg  =    0.7512D-08             -V/T =  2.0017

 **********************************************************************

            Population analysis using the SCF density.

 **********************************************************************

 Orbital symmetries:
 BldTbl:  Degeneracy threshold= 1.00D-02
       Occupied  (A) (A) (A) (A) (A) (A) (A) (A) (A) (A) (A) (A)
                 (A) (A) (A) (A) (A) (A) (A) (A) (A) (A) (A) (A)
                 (A) (A) (A) (A) (A) (A) (A) (A) (A) (A) (A) (A)
                 (A) (A) (A) (A) (A) (A) (A) (A) (A) (A) (A) (A)
                 (A) (A) (A) (A) (A) (A) (A) (A) (A) (A) (A) (A)
                 (A)
       Virtual   (A) (A) (A) (A) (A) (A) (A) (A) (A) (A) (A) (A)
                 (A) (A) (A) (A) (A) (A) (A) (A) (A) (A) (A) (A)
                 (A) (A) (A) (A) (A) (A) (A) (A) (A) (A) (A) (A)
                 (A) (A) (A) (A) (A) (A) (A) (A) (A) (A) (A) (A)
                 (A) (A) (A) (A) (A) (A) (A) (A) (A) (A) (A) (A)
                 (A) (A) (A) (A) (A) (A) (A) (A) (A) (A) (A) (A)
                 (A) (A) (A) (A) (A) (A) (A) (A) (A) (A) (A) (A)
                 (A) (A) (A) (A) (A) (A) (A) (A) (A) (A) (A) (A)
                 (A) (A) (A) (A) (A) (A) (A) (A) (A) (A) (A) (A)
                 (A) (A) (A) (A) (A) (A) (A) (A) (A) (A) (A) (A)
                 (A) (A) (A) (A) (A) (A) (A) (A) (A) (A) (A) (A)
                 (A) (A) (A) (A) (A) (A) (A) (A) (A) (A) (A) (A)
                 (A) (A) (A) (A) (A) (A) (A) (A) (A) (A) (A) (A)
                 (A) (A) (A) (A) (A) (A) (A) (A) (A) (A) (A) (A)
                 (A) (A) (A) (A) (A) (A) (A) (A) (A) (A) (A)
 The electronic state is 1-A.
 Alpha  occ. eigenvalues -- -104.82788 -92.24110 -20.57133 -20.57078 -15.62870
 Alpha  occ. eigenvalues --  -15.62293 -11.30954 -11.30401 -11.27904 -11.27815
 Alpha  occ. eigenvalues --  -11.26249 -11.26101 -11.25959 -11.25331 -10.56088
 Alpha  occ. eigenvalues --   -9.20860  -8.03026  -8.02695  -8.02690  -6.89446
 Alpha  occ. eigenvalues --   -6.89427  -6.89423  -1.47464  -1.34889  -1.27025
 Alpha  occ. eigenvalues --   -1.25027  -1.18417  -1.11116  -1.03878  -1.00313
 Alpha  occ. eigenvalues --   -0.98551  -0.94349  -0.86333  -0.83573  -0.80638
 Alpha  occ. eigenvalues --   -0.73983  -0.73026  -0.70470  -0.67580  -0.66252
 Alpha  occ. eigenvalues --   -0.65069  -0.64453  -0.62688  -0.61348  -0.60709
 Alpha  occ. eigenvalues --   -0.58611  -0.57654  -0.55670  -0.54640  -0.54275
 Alpha  occ. eigenvalues --   -0.52897  -0.51930  -0.51674  -0.49612  -0.49185
 Alpha  occ. eigenvalues --   -0.47316  -0.45440  -0.44291  -0.41554  -0.35589
 Alpha  occ. eigenvalues --   -0.32502
 Alpha virt. eigenvalues --    0.11915   0.12123   0.18647   0.20636   0.22186
 Alpha virt. eigenvalues --    0.24551   0.24812   0.26352   0.27136   0.27979
 Alpha virt. eigenvalues --    0.28542   0.28951   0.30125   0.31425   0.32032
 Alpha virt. eigenvalues --    0.33399   0.33950   0.34742   0.35840   0.37805
 Alpha virt. eigenvalues --    0.38952   0.41082   0.45174   0.46465   0.47173
 Alpha virt. eigenvalues --    0.49942   0.54645   0.55144   0.59302   0.59829
 Alpha virt. eigenvalues --    0.61334   0.61563   0.63717   0.64360   0.69378
 Alpha virt. eigenvalues --    0.70359   0.70935   0.72889   0.74750   0.76025
 Alpha virt. eigenvalues --    0.77463   0.78933   0.79756   0.80616   0.81162
 Alpha virt. eigenvalues --    0.82383   0.82592   0.85721   0.87717   0.88308
 Alpha virt. eigenvalues --    0.89118   0.91571   0.93191   0.96349   0.97218
 Alpha virt. eigenvalues --    0.97736   0.98647   1.01078   1.03091   1.03667
 Alpha virt. eigenvalues --    1.06537   1.07807   1.09215   1.10130   1.10533
 Alpha virt. eigenvalues --    1.10677   1.12229   1.13307   1.14102   1.15195
 Alpha virt. eigenvalues --    1.15772   1.16452   1.17410   1.18640   1.18972
 Alpha virt. eigenvalues --    1.20557   1.21542   1.22073   1.23437   1.24044
 Alpha virt. eigenvalues --    1.25566   1.27541   1.30115   1.32304   1.33490
 Alpha virt. eigenvalues --    1.34849   1.38017   1.38521   1.39863   1.41924
 Alpha virt. eigenvalues --    1.44917   1.46238   1.47306   1.48930   1.51450
 Alpha virt. eigenvalues --    1.55095   1.56147   1.61623   1.64671   1.65660
 Alpha virt. eigenvalues --    1.67159   1.69360   1.70145   1.70964   1.72774
 Alpha virt. eigenvalues --    1.76376   1.76628   1.81068   1.82744   1.84158
 Alpha virt. eigenvalues --    1.89060   1.94862   2.04050   2.05979   2.07452
 Alpha virt. eigenvalues --    2.09435   2.10425   2.11183   2.12305   2.14297
 Alpha virt. eigenvalues --    2.16581   2.18103   2.20958   2.23582   2.25392
 Alpha virt. eigenvalues --    2.27916   2.28696   2.29662   2.31013   2.34617
 Alpha virt. eigenvalues --    2.37520   2.39222   2.40183   2.41480   2.42856
 Alpha virt. eigenvalues --    2.44306   2.45337   2.48902   2.51684   2.52548
 Alpha virt. eigenvalues --    2.54367   2.56818   2.61083   2.61504   2.64430
 Alpha virt. eigenvalues --    2.65010   2.68645   2.75380   2.77858   2.79045
 Alpha virt. eigenvalues --    2.83049   2.91496   2.92234   2.94626   2.97312
 Alpha virt. eigenvalues --    3.03570   3.05953   3.08948   3.09281   3.12825
 Alpha virt. eigenvalues --    3.15487   3.19626   3.26524   3.43160   3.74570
 Alpha virt. eigenvalues --    4.22268   4.29562   4.38409   4.42629   4.47001
 Alpha virt. eigenvalues --    4.51841   4.53647   4.56186   4.66581   4.70518
 Alpha virt. eigenvalues --    4.72604   4.73417   4.81774   5.10290
          Condensed to atoms (all electrons):
              1          2          3          4          5          6
     1  C    4.990820   0.221681  -0.050644  -0.032213  -0.000762  -0.001881
     2  N    0.221681   7.504352   0.204206   0.220183  -0.053900  -0.054296
     3  C   -0.050644   0.204206   4.987400  -0.018352   0.005336   0.000984
     4  S   -0.032213   0.220183  -0.018352  12.909547   0.480799   0.506193
     5  O   -0.000762  -0.053900   0.005336   0.480799   8.345793  -0.040301
     6  O   -0.001881  -0.054296   0.000984   0.506193  -0.040301   8.310191
     7  N    0.001369  -0.063413  -0.004218   0.210455  -0.052615  -0.057617
     8  C    0.000010   0.001841  -0.000164  -0.019404  -0.001134   0.002361
     9  C    0.000000  -0.000059  -0.000001   0.000717   0.000214  -0.000051
    10  C    0.000000   0.000000   0.000000   0.000072   0.000002  -0.000004
    11  C    0.000000   0.000000   0.000000  -0.000010  -0.000002   0.000000
    12  Cl   0.000000   0.000000   0.000000   0.000000   0.000000   0.000000
    13  C    0.000000   0.000000   0.000000   0.000030   0.000091  -0.000004
    14  C    0.000001  -0.000155   0.000043  -0.002524  -0.003173   0.000023
    15  H    0.396843  -0.041466  -0.003624   0.002653  -0.000080   0.000191
    16  H    0.395137  -0.050713  -0.000280  -0.002963   0.001121  -0.000272
    17  H    0.398173  -0.030764   0.003218  -0.005073  -0.000026   0.004397
    18  H   -0.004264  -0.037994   0.393552   0.003570   0.000064  -0.000039
    19  H    0.003436  -0.032744   0.398262  -0.003889  -0.001325   0.000006
    20  H   -0.000646  -0.047836   0.398593  -0.007762   0.003089  -0.000024
    21  H   -0.000083   0.003681  -0.000175  -0.001755   0.001150   0.000230
    22  H    0.000000  -0.000013   0.000000   0.000032   0.000000  -0.000001
    23  H    0.000000   0.000000   0.000000  -0.000002   0.000000   0.000000
    24  H    0.000000   0.000000   0.000000  -0.000008  -0.000001   0.000000
    25  H    0.000001  -0.000043   0.000012   0.000215   0.003002   0.000034
              7          8          9         10         11         12
     1  C    0.001369   0.000010   0.000000   0.000000   0.000000   0.000000
     2  N   -0.063413   0.001841  -0.000059   0.000000   0.000000   0.000000
     3  C   -0.004218  -0.000164  -0.000001   0.000000   0.000000   0.000000
     4  S    0.210455  -0.019404   0.000717   0.000072  -0.000010   0.000000
     5  O   -0.052615  -0.001134   0.000214   0.000002  -0.000002   0.000000
     6  O   -0.057617   0.002361  -0.000051  -0.000004   0.000000   0.000000
     7  N    7.464262   0.211916  -0.053688   0.004007   0.000144   0.000002
     8  C    0.211916   4.603206   0.571341  -0.039775  -0.030182   0.000332
     9  C   -0.053688   0.571341   4.939998   0.531462  -0.045891   0.002487
    10  C    0.004007  -0.039775   0.531462   4.929696   0.534254  -0.063801
    11  C    0.000144  -0.030182  -0.045891   0.534254   5.038076   0.215117
    12  Cl   0.000002   0.000332   0.002487  -0.063801   0.215117  16.909043
    13  C    0.002580  -0.037295  -0.034075  -0.044325   0.522743  -0.063034
    14  C   -0.050057   0.569150  -0.041994  -0.033076  -0.042227   0.002197
    15  H   -0.000067   0.000000   0.000000   0.000000   0.000000   0.000000
    16  H   -0.000068   0.000002   0.000000   0.000000   0.000000   0.000000
    17  H    0.000060  -0.000008   0.000000   0.000000   0.000000   0.000000
    18  H   -0.000118  -0.000001   0.000000   0.000000   0.000000   0.000000
    19  H    0.004906  -0.000161  -0.000003   0.000000   0.000000   0.000000
    20  H    0.000238   0.000023   0.000000   0.000000   0.000000   0.000000
    21  H    0.315057  -0.036707   0.002143   0.000270  -0.000002   0.000000
    22  H   -0.002316  -0.033597   0.376380  -0.022855   0.002321  -0.000087
    23  H   -0.000085   0.001554  -0.023584   0.379156  -0.027575   0.000392
    24  H   -0.000072   0.001586   0.000287   0.002018  -0.028914   0.000375
    25  H   -0.000949  -0.023702   0.002421   0.000028   0.002217  -0.000071
             13         14         15         16         17         18
     1  C    0.000000   0.000001   0.396843   0.395137   0.398173  -0.004264
     2  N    0.000000  -0.000155  -0.041466  -0.050713  -0.030764  -0.037994
     3  C    0.000000   0.000043  -0.003624  -0.000280   0.003218   0.393552
     4  S    0.000030  -0.002524   0.002653  -0.002963  -0.005073   0.003570
     5  O    0.000091  -0.003173  -0.000080   0.001121  -0.000026   0.000064
     6  O   -0.000004   0.000023   0.000191  -0.000272   0.004397  -0.000039
     7  N    0.002580  -0.050057  -0.000067  -0.000068   0.000060  -0.000118
     8  C   -0.037295   0.569150   0.000000   0.000002  -0.000008  -0.000001
     9  C   -0.034075  -0.041994   0.000000   0.000000   0.000000   0.000000
    10  C   -0.044325  -0.033076   0.000000   0.000000   0.000000   0.000000
    11  C    0.522743  -0.042227   0.000000   0.000000   0.000000   0.000000
    12  Cl  -0.063034   0.002197   0.000000   0.000000   0.000000   0.000000
    13  C    4.949674   0.526918   0.000000   0.000000   0.000000   0.000000
    14  C    0.526918   4.909592   0.000000   0.000000   0.000000  -0.000001
    15  H    0.000000   0.000000   0.511648  -0.036141  -0.019625   0.002818
    16  H    0.000000   0.000000  -0.036141   0.538987  -0.025156  -0.000705
    17  H    0.000000   0.000000  -0.019625  -0.025156   0.438991   0.000013
    18  H    0.000000  -0.000001   0.002818  -0.000705   0.000013   0.507971
    19  H    0.000001   0.000051   0.000037  -0.000159  -0.000080  -0.021674
    20  H    0.000000   0.000000  -0.000892   0.004805  -0.000134  -0.032111
    21  H   -0.000030   0.002357  -0.000005   0.000007  -0.000015  -0.000044
    22  H    0.000112   0.002548   0.000000   0.000000   0.000000   0.000000
    23  H    0.002014   0.000226   0.000000   0.000000   0.000000   0.000000
    24  H    0.380754  -0.023626   0.000000   0.000000   0.000000   0.000000
    25  H   -0.025973   0.374453   0.000000   0.000000   0.000000   0.000000
             19         20         21         22         23         24
     1  C    0.003436  -0.000646  -0.000083   0.000000   0.000000   0.000000
     2  N   -0.032744  -0.047836   0.003681  -0.000013   0.000000   0.000000
     3  C    0.398262   0.398593  -0.000175   0.000000   0.000000   0.000000
     4  S   -0.003889  -0.007762  -0.001755   0.000032  -0.000002  -0.000008
     5  O   -0.001325   0.003089   0.001150   0.000000   0.000000  -0.000001
     6  O    0.000006  -0.000024   0.000230  -0.000001   0.000000   0.000000
     7  N    0.004906   0.000238   0.315057  -0.002316  -0.000085  -0.000072
     8  C   -0.000161   0.000023  -0.036707  -0.033597   0.001554   0.001586
     9  C   -0.000003   0.000000   0.002143   0.376380  -0.023584   0.000287
    10  C    0.000000   0.000000   0.000270  -0.022855   0.379156   0.002018
    11  C    0.000000   0.000000  -0.000002   0.002321  -0.027575  -0.028914
    12  Cl   0.000000   0.000000   0.000000  -0.000087   0.000392   0.000375
    13  C    0.000001   0.000000  -0.000030   0.000112   0.002014   0.380754
    14  C    0.000051   0.000000   0.002357   0.002548   0.000226  -0.023626
    15  H    0.000037  -0.000892  -0.000005   0.000000   0.000000   0.000000
    16  H   -0.000159   0.004805   0.000007   0.000000   0.000000   0.000000
    17  H   -0.000080  -0.000134  -0.000015   0.000000   0.000000   0.000000
    18  H   -0.021674  -0.032111  -0.000044   0.000000   0.000000   0.000000
    19  H    0.463525  -0.025775  -0.000117   0.000000   0.000000   0.000000
    20  H   -0.025775   0.519749   0.000021   0.000000   0.000000   0.000000
    21  H   -0.000117   0.000021   0.301818   0.003389  -0.000008   0.000002
    22  H    0.000000   0.000000   0.003389   0.458379  -0.001608   0.000008
    23  H    0.000000   0.000000  -0.000008  -0.001608   0.432643  -0.000096
    24  H    0.000000   0.000000   0.000002   0.000008  -0.000096   0.430427
    25  H    0.000087   0.000002  -0.000104  -0.000095   0.000007  -0.001389
             25
     1  C    0.000001
     2  N   -0.000043
     3  C    0.000012
     4  S    0.000215
     5  O    0.003002
     6  O    0.000034
     7  N   -0.000949
     8  C   -0.023702
     9  C    0.002421
    10  C    0.000028
    11  C    0.002217
    12  Cl  -0.000071
    13  C   -0.025973
    14  C    0.374453
    15  H    0.000000
    16  H    0.000000
    17  H    0.000000
    18  H    0.000000
    19  H    0.000087
    20  H    0.000002
    21  H   -0.000104
    22  H   -0.000095
    23  H    0.000007
    24  H   -0.001389
    25  H    0.403452
 Mulliken atomic charges:
              1
     1  C   -0.316978
     2  N   -0.742548
     3  C   -0.314148
     4  S    1.759489
     5  O   -0.687342
     6  O   -0.670121
     7  N   -0.929713
     8  C    0.258811
     9  C   -0.228103
    10  C   -0.177129
    11  C   -0.140069
    12  Cl  -0.002952
    13  C   -0.180181
    14  C   -0.190727
    15  H    0.187711
    16  H    0.176396
    17  H    0.236030
    18  H    0.188963
    19  H    0.215618
    20  H    0.188660
    21  H    0.408921
    22  H    0.217402
    23  H    0.236967
    24  H    0.238651
    25  H    0.266394
 Sum of Mulliken atomic charges =   0.00000
 Mulliken charges with hydrogens summed into heavy atoms:
              1
     1  C    0.283158
     2  N   -0.742548
     3  C    0.279092
     4  S    1.759489
     5  O   -0.687342
     6  O   -0.670121
     7  N   -0.520792
     8  C    0.258811
     9  C   -0.010701
    10  C    0.059838
    11  C   -0.140069
    12  Cl  -0.002952
    13  C    0.058470
    14  C    0.075667
 Sum of Mulliken charges with hydrogens summed into heavy atoms =   0.00000
 DipInt: DoE/N= T F RetVal/Mat= T F Init=T NMatP=  1 IDeriv=0 Min/MaxMlt=  0  4
 Entering OneElI...
 OneElI was handed    33404290 working-precision words.
 Multipole integrals L=0 to 4 MinM= 0 MaxM= 0.
 Requested accuracy = 0.1000D-12
 PrsmSu:  NPrtUS=   1 ThrOK=F IAlg=1 NPAlg=1 LenDen=           0.
 Prism:   IPart=     0 DynPar=F LinDyn=F Incr=          27.
 PRISM was handed    33150311 working-precision words and  2701 shell-pairs
 IPart=  0 NShTot=        2701 NBatch=          69 AvBLen=        39.1
 PrSmSu:  NxtVal=             28.
 Electronic moments (au):
       -122.00000000          1.27848221         -0.23074923          1.55666469
      -4138.29416856       -414.43050756       -300.39316259          1.65434477
          5.09511953         -2.41062091       6563.11775430        -10.60760903
        -26.38884501       -161.08519725       -271.32350839        -43.07941595
       -793.76124701         -7.71613997        -13.67523003       -627.95831306
    -267548.66518418      -3847.38172024      -2222.71319928       4564.63451283
      -8626.05467535       -964.48269445         74.83329512       -352.65147195
       -449.84675689     -10454.98627149      -8173.92742095      -1453.07744327
      -1673.67545311        347.78406411       -703.36034663
 Electronic spatial extent (au):  <R**2>=           4853.1178
 DipInt: DoE/N= F T RetVal/Mat= T F Init=T NMatP=  1 IDeriv=0 Min/MaxMlt=  0  4
 Nuclear    moments (au):
        122.00000000          0.00000000          0.00000000          0.00000000
       4071.68149028        345.13951702        224.03988970          0.00000000
          0.00000000          0.00000000      -6346.93120519          7.28003777
         26.31993680        146.56928342        270.95040647         60.60308235
        803.95386107          8.70537064         28.44270580        638.69575143
     253606.60637763       2501.34212783       1177.30517620      -4519.96880719
       8708.30001464        963.49114789       -118.45884512        403.75750318
        445.55451664       7906.80652081       5562.36003362       1034.45155769
       1657.86050045       -310.95102836        724.90189153
 Total      moments (au):
          0.00000000          1.27848221         -0.23074923          1.55666469
        -66.61267828        -69.29099054        -76.35327288          1.65434477
          5.09511953         -2.41062091        216.18654911         -3.32757126
         -0.06890821        -14.51591383         -0.37310192         17.52366640
         10.19261406          0.98923068         14.76747577         10.73743837
     -13942.05880656      -1346.03959241      -1045.40802307         44.66570563
         82.24533930         -0.99154656        -43.62555000         51.10603123
         -4.29224026      -2548.17975068      -2611.56738733       -418.62588558
        -15.81495266         36.83303575         21.54154491
 Traceless Quadrup. (au):
          4.13963562          1.46132336         -5.60095898          1.65434477
          5.09511953         -2.41062091
 Charge=              0.0000 electrons
 Dipole moment (field-independent basis, Debye):
    X=              3.2496    Y=             -0.5865    Z=              3.9566  Tot=              5.1535
 Quadrupole moment (field-independent basis, Debye-Ang):
   XX=            -89.5963   YY=            -93.1988   ZZ=           -102.6978
   XY=              2.2252   XZ=              6.8531   YZ=             -3.2424
 Traceless Quadrupole moment (field-independent basis, Debye-Ang):
   XX=              5.5680   YY=              1.9655   ZZ=             -7.5335
   XY=              2.2252   XZ=              6.8531   YZ=             -3.2424
 Octapole moment (field-independent basis, Debye-Ang**2):
  XXX=            153.8732  YYY=             -2.3684  ZZZ=             -0.0490  XYY=            -10.3319
  XXY=             -0.2656  XXZ=             12.4727  XZZ=              7.2547  YZZ=              0.7041
  YYZ=             10.5109  XYZ=              7.6425
 Hexadecapole moment (field-independent basis, Debye-Ang**3):
 XXXX=          -5251.2475 YYYY=           -506.9830 ZZZZ=           -393.7508 XXXY=             16.8232
 XXXZ=             30.9775 YYYX=             -0.3735 YYYZ=            -16.4315 ZZZX=             19.2490
 ZZZY=             -1.6167 XXYY=           -959.7666 XXZZ=           -983.6414 YYZZ=           -157.6746
 XXYZ=             -5.9567 YYXZ=             13.8731 ZZXY=              8.1136
 N-N= 1.139904700590D+03 E-N=-5.646397574270D+03  KE= 1.422467189497D+03
 Entering OneElI...
 OneElI was handed    33288225 working-precision words.
 Calculate electrostatic properties
    NBasis =   240  MinDer = 0  MaxDer = 0
    NGrid  =    25  NMatD  =   1
 Requested accuracy = 0.1000D-12
 PrsmSu:  NPrtUS=   2 ThrOK=T IAlg=1 NPAlg=1 LenDen=           0.
 Prism:   IPart=     0 DynPar=F LinDyn=F Incr=         305.
 PRISM was handed    16487763 working-precision words and  2443 shell-pairs
 PRISM was handed    16487763 working-precision words and  2443 shell-pairs
 IPart=  1 NShTot=       30075 NBatch=        1203 AvBLen=        25.0
 IPart=  0 NShTot=       31000 NBatch=        1240 AvBLen=        25.0
 PrSmSu:  NxtVal=            611.
 --------------------------------------------------------
       Center         ----      EFG at Nuclei      ----
                      3XX-RR        3YY-RR        3ZZ-RR
 --------------------------------------------------------
     1   Atom       -0.204931      0.123279      0.081651
     2   Atom       -0.602062      0.436886      0.165176
     3   Atom        0.152922     -0.153670      0.000747
     4   Atom       -0.376670      0.605635     -0.228965
     5   Atom        0.652329     -1.176901      0.524573
     6   Atom        0.761707     -0.764555      0.002849
     7   Atom       -0.502139      0.491666      0.010473
     8   Atom       -0.125094      0.277155     -0.152061
     9   Atom        0.164280      0.064907     -0.229187
    10   Atom        0.170212      0.097132     -0.267344
    11   Atom       -0.279568      0.336275     -0.056707
    12   Atom       -3.512541      1.839257      1.673285
    13   Atom        0.173540      0.099394     -0.272934
    14   Atom        0.164079      0.096323     -0.260403
    15   Atom       -0.052490      0.138672     -0.086182
    16   Atom        0.071685     -0.053012     -0.018672
    17   Atom        0.122795     -0.168147      0.045352
    18   Atom       -0.053908      0.123395     -0.069487
    19   Atom       -0.174685      0.116752      0.057933
    20   Atom        0.110090     -0.110549      0.000460
    21   Atom        0.125942     -0.215798      0.089857
    22   Atom        0.067926     -0.196693      0.128767
    23   Atom       -0.016108     -0.136098      0.152206
    24   Atom        0.072647     -0.194059      0.121412
    25   Atom       -0.011216     -0.142420      0.153636
 --------------------------------------------------------
                        XY            XZ            YZ
 --------------------------------------------------------
     1   Atom        0.151192      0.164498     -0.030614
     2   Atom        0.294473     -0.479740     -0.780038
     3   Atom       -0.062432     -0.054836     -0.210403
     4   Atom       -0.148038      0.145134      0.119840
     5   Atom        0.384103     -0.197883      0.886432
     6   Atom        0.118625      0.138569     -1.188945
     7   Atom        0.229872      0.393493      0.770473
     8   Atom        0.046806     -0.004745     -0.146101
     9   Atom        0.017943      0.027437     -0.110877
    10   Atom        0.021014      0.050330     -0.117337
    11   Atom        0.070200     -0.045491     -0.114247
    12   Atom        0.445902     -0.778775      0.034202
    13   Atom       -0.003197      0.063961     -0.123854
    14   Atom        0.050364      0.066508     -0.138689
    15   Atom        0.062025     -0.205638      0.054821
    16   Atom       -0.103260      0.109009      0.180358
    17   Atom       -0.064279     -0.032288     -0.188752
    18   Atom        0.059889     -0.215164      0.049310
    19   Atom        0.089621      0.166988     -0.061147
    20   Atom       -0.104314      0.077233      0.175752
    21   Atom        0.114655     -0.036656      0.236555
    22   Atom        0.150597     -0.056218      0.120433
    23   Atom       -0.211048      0.039945      0.063430
    24   Atom        0.152181     -0.056908      0.125338
    25   Atom       -0.208319      0.032273      0.058349
 --------------------------------------------------------


 ---------------------------------------------------------------------------------
              Nuclear Quadrupole in Principal Axis System
 ---------------------------------------------------------------------------------

       Atom             a.u.   MegaHertz   Gauss  10(-4) cm-1        Axes

              Baa    -0.3299   -44.271   -15.797   -14.767  0.8726 -0.3163 -0.3723
     1 C(13)  Bbb     0.1310    17.574     6.271     5.862  0.1335 -0.5788  0.8045
              Bcc     0.1989    26.697     9.526     8.905  0.4699  0.7517  0.4628
 
              Baa    -0.8400   -32.398   -11.560   -10.807  0.8655  0.1003  0.4908
     2 N(14)  Bbb    -0.4085   -15.754    -5.621    -5.255 -0.4156  0.6908  0.5917
              Bcc     1.2485    48.152    17.182    16.062  0.2797  0.7161 -0.6395
 
              Baa    -0.3152   -42.291   -15.091   -14.107  0.1738  0.8054  0.5666
     3 C(13)  Bbb     0.1441    19.342     6.902     6.452  0.3562 -0.5878  0.7263
              Bcc     0.1710    22.949     8.189     7.655  0.9181  0.0756 -0.3891
 
              Baa    -0.4980   -20.419    -7.286    -6.811  0.8341  0.1689 -0.5251
     4 S(33)  Bbb    -0.1407    -5.768    -2.058    -1.924  0.5368 -0.0289  0.8432
              Bcc     0.6387    26.187     9.344     8.735 -0.1272  0.9852  0.1148
 
              Baa    -1.6360   118.377    42.240    39.486 -0.1851  0.9031 -0.3875
     5 O(17)  Bbb     0.7280   -52.679   -18.797   -17.572  0.9676  0.2363  0.0886
              Bcc     0.9079   -65.697   -23.442   -21.914 -0.1716  0.3585  0.9176
 
              Baa    -1.6433   118.906    42.429    39.663 -0.0736  0.8055  0.5880
     6 O(17)  Bbb     0.7587   -54.897   -19.589   -18.312  0.9312  0.2666 -0.2486
              Bcc     0.8846   -64.010   -22.840   -21.351  0.3570 -0.5292  0.7697
 
              Baa    -0.7593   -29.285   -10.450    -9.768  0.7363  0.2516 -0.6282
     7 N(14)  Bbb    -0.4051   -15.625    -5.575    -5.212  0.6304 -0.5925  0.5015
              Bcc     1.1644    44.910    16.025    14.980  0.2460  0.7653  0.5948
 
              Baa    -0.1983   -26.611    -9.496    -8.877 -0.1326  0.3030  0.9437
     8 C(13)  Bbb    -0.1286   -17.252    -6.156    -5.755  0.9860 -0.0572  0.1569
              Bcc     0.3269    43.864    15.652    14.631  0.1016  0.9513 -0.2912
 
              Baa    -0.2686   -36.047   -12.863   -12.024 -0.0731  0.3182  0.9452
     9 C(13)  Bbb     0.1010    13.551     4.835     4.520 -0.1248  0.9374 -0.3252
              Bcc     0.1676    22.497     8.027     7.504  0.9895  0.1417  0.0288
 
              Baa    -0.3080   -41.331   -14.748   -13.786 -0.1127  0.2818  0.9528
    10 C(13)  Bbb     0.1309    17.561     6.266     5.858 -0.1281  0.9468 -0.2952
              Bcc     0.1771    23.769     8.481     7.928  0.9853  0.1553  0.0706
 
              Baa    -0.2924   -39.236   -14.000   -13.088  0.9852 -0.0827  0.1501
    11 C(13)  Bbb    -0.0844   -11.321    -4.039    -3.776 -0.1216  0.2790  0.9526
              Bcc     0.3768    50.557    18.040    16.864  0.1207  0.9567 -0.2648
 
              Baa    -3.6631  -191.720   -68.411   -63.951  0.9862 -0.0808  0.1444
    12 Cl(35) Bbb     1.7779    93.053    33.204    31.039 -0.1140  0.3009  0.9468
              Bcc     1.8852    98.668    35.207    32.912  0.1200  0.9502 -0.2876
 
              Baa    -0.3178   -42.644   -15.216   -14.224 -0.1221  0.2816  0.9517
    13 C(13)  Bbb     0.1282    17.198     6.137     5.737  0.3724  0.9018 -0.2191
              Bcc     0.1896    25.446     9.080     8.488  0.9200 -0.3277  0.2150
 
              Baa    -0.3210   -43.071   -15.369   -14.367 -0.1617  0.3288  0.9305
    14 C(13)  Bbb     0.1299    17.432     6.220     5.815 -0.4714  0.8026 -0.3655
              Bcc     0.1911    25.639     9.149     8.552  0.8670  0.4978 -0.0252
 
              Baa    -0.2914  -155.496   -55.485   -51.868  0.6683 -0.1881  0.7198
    15 H(1)   Bbb     0.1337    71.319    25.448    23.790 -0.6331  0.3644  0.6830
              Bcc     0.1578    84.176    30.036    28.078  0.3907  0.9121 -0.1244
 
              Baa    -0.2807  -149.766   -53.440   -49.956  0.3913  0.6739 -0.6267
    16 H(1)   Bbb     0.1289    68.772    24.540    22.940  0.7785 -0.6056 -0.1651
              Bcc     0.1518    80.993    28.900    27.016  0.4907  0.4232  0.7616
 
              Baa    -0.2907  -155.110   -55.347   -51.739  0.1711  0.8519  0.4949
    17 H(1)   Bbb     0.1343    71.672    25.574    23.907  0.9642 -0.0415 -0.2619
              Bcc     0.1564    83.437    29.773    27.832  0.2026 -0.5220  0.8285
 
              Baa    -0.2913  -155.440   -55.465   -51.849  0.6851 -0.1828  0.7051
    18 H(1)   Bbb     0.1339    71.422    25.485    23.824 -0.1738  0.8990  0.4019
              Bcc     0.1575    84.018    29.980    28.025  0.7074  0.3979 -0.5842
 
              Baa    -0.2904  -154.952   -55.291   -51.686  0.8534 -0.2560 -0.4540
    19 H(1)   Bbb     0.1329    70.914    25.304    23.654  0.4927  0.6806  0.5423
              Bcc     0.1575    84.038    29.987    28.032  0.1702 -0.6865  0.7069
 
              Baa    -0.2823  -150.614   -53.743   -50.240  0.3140  0.7655 -0.5616
    20 H(1)   Bbb     0.1292    68.961    24.607    23.003 -0.0238  0.5977  0.8014
              Bcc     0.1530    81.654    29.136    27.237  0.9491 -0.2383  0.2059
 
              Baa    -0.3727  -198.844   -70.953   -66.327 -0.2311  0.8587 -0.4575
    21 H(1)   Bbb     0.1472    78.536    28.023    26.197  0.9292  0.0554 -0.3653
              Bcc     0.2255   120.309    42.929    40.131  0.2883  0.5095  0.8107
 
              Baa    -0.3055  -163.009   -58.166   -54.374 -0.3952  0.8707 -0.2926
    22 H(1)   Bbb     0.1360    72.570    25.895    24.207  0.9043  0.4247  0.0424
              Bcc     0.1695    90.439    32.271    30.167 -0.1612  0.2479  0.9553
 
              Baa    -0.3076  -164.145   -58.571   -54.753  0.5931  0.7890 -0.1604
    23 H(1)   Bbb     0.1416    75.540    26.954    25.197  0.7962 -0.5453  0.2620
              Bcc     0.1661    88.606    31.617    29.556 -0.1193  0.2831  0.9517
 
              Baa    -0.3073  -163.934   -58.496   -54.683 -0.3932  0.8671 -0.3057
    24 H(1)   Bbb     0.1416    75.570    26.965    25.207  0.9104  0.4138  0.0030
              Bcc     0.1656    88.364    31.531    29.475 -0.1291  0.2771  0.9521
 
              Baa    -0.3048  -162.610   -58.023   -54.241  0.5832  0.7997 -0.1428
    25 H(1)   Bbb     0.1387    74.007    26.408    24.686  0.7916 -0.5200  0.3210
              Bcc     0.1661    88.603    31.616    29.555 -0.1824  0.3003  0.9362
 

 ---------------------------------------------------------------------------------

 No NMR shielding tensors so no spin-rotation constants.
 Leave Link  601 at Fri Aug 24 15:36:43 2018, MaxMem=   33554432 cpu:       0.5
 Merz-Kollman atomic radii used.
 Read replacement radii for each type of atom:
 Atom Element Radius
    1     6    1.50
    2     7    1.50
    3     6    1.50
    4    16    1.75
    5     8    1.40
    6     8    1.40
    7     7    1.50
    8     6    1.50
    9     6    1.50
   10     6    1.50
   11     6    1.50
   12    17    1.70
   13     6    1.50
   14     6    1.50
   15     1    1.20
   16     1    1.20
   17     1    1.20
   18     1    1.20
   19     1    1.20
   20     1    1.20
   21     1    1.20
   22     1    1.20
   23     1    1.20
   24     1    1.20
   25     1    1.20
 Generate VDW surfaces: Layer= 4 Dens= 1 Start= 1.400 Inc= 0.200

 **********************************************************************

            Electrostatic Properties Using The SCF Density

 **********************************************************************

       Atomic Center    1 is at   4.548275 -0.560521 -0.151842
       Atomic Center    2 is at   3.319428 -0.079820  0.500200
       Atomic Center    3 is at   3.501455  1.153496  1.280187
       Atomic Center    4 is at   1.955341 -0.070208 -0.496599
       Atomic Center    5 is at   1.675506  1.245959 -1.071981
       Atomic Center    6 is at   2.060159 -1.240776 -1.368150
       Atomic Center    7 is at   0.811762 -0.309694  0.753523
       Atomic Center    8 is at  -0.584652 -0.199499  0.467161
       Atomic Center    9 is at  -1.421412 -1.301205  0.679927
       Atomic Center   10 is at  -2.797755 -1.193557  0.489961
       Atomic Center   11 is at  -3.331798  0.018636  0.058594
       Atomic Center   12 is at  -5.065884  0.160908 -0.196074
       Atomic Center   13 is at  -2.508649  1.120934 -0.170967
       Atomic Center   14 is at  -1.136909  1.016959  0.045658
       Atomic Center   15 is at   5.276698 -0.767771  0.637732
       Atomic Center   16 is at   4.977096  0.179749 -0.842525
       Atomic Center   17 is at   4.337695 -1.481606 -0.693808
       Atomic Center   18 is at   4.249808  0.950138  2.052023
       Atomic Center   19 is at   2.562060  1.419328  1.767183
       Atomic Center   20 is at   3.839926  1.994293  0.660018
       Atomic Center   21 is at   1.049618 -1.185332  1.215302
       Atomic Center   22 is at  -0.997827 -2.251545  0.995491
       Atomic Center   23 is at  -3.445038 -2.046646  0.661940
       Atomic Center   24 is at  -2.938490  2.059702 -0.503295
       Atomic Center   25 is at  -0.491964  1.871263 -0.118315
      ESP Fit Center   26 is at   4.289454 -2.360663  0.898158
      ESP Fit Center   27 is at   5.741211 -2.288787 -0.151842
      ESP Fit Center   28 is at   6.078224 -1.543759 -1.201842
      ESP Fit Center   29 is at   2.794428 -0.989147  2.318854
      ESP Fit Center   30 is at   3.844428 -0.989147  2.318854
      ESP Fit Center   31 is at   3.060606 -1.879962  1.550200
      ESP Fit Center   32 is at   4.074924 -1.734125  1.550200
      ESP Fit Center   33 is at   2.976455  0.244170  3.098840
      ESP Fit Center   34 is at   4.256950  2.807802  2.330187
      ESP Fit Center   35 is at   3.242633  2.953639  2.330187
      ESP Fit Center   36 is at   3.566752  0.965382 -2.024149
      ESP Fit Center   37 is at   0.117445  0.469447 -2.024149
      ESP Fit Center   38 is at   0.117445 -0.609863 -2.024149
      ESP Fit Center   39 is at   3.018357 -0.070208 -2.703972
      ESP Fit Center   40 is at   0.892326 -0.070208 -2.703972
      ESP Fit Center   41 is at   1.955341 -0.070208 -2.946599
      ESP Fit Center   42 is at   1.185506  2.094664  0.625429
      ESP Fit Center   43 is at   2.200035  2.860291 -0.091981
      ESP Fit Center   44 is at   1.150978  2.860291 -0.091981
      ESP Fit Center   45 is at   3.372916  2.225959 -1.071981
      ESP Fit Center   46 is at   2.655506  2.943368 -1.071981
      ESP Fit Center   47 is at   1.675506  3.205959 -1.071981
      ESP Fit Center   48 is at   0.695506  2.943368 -1.071981
      ESP Fit Center   49 is at   3.372916  1.245959 -2.051981
      ESP Fit Center   50 is at   3.048740  2.243671 -2.051981
      ESP Fit Center   51 is at   2.200035  2.860291 -2.051981
      ESP Fit Center   52 is at   1.150978  2.860291 -2.051981
      ESP Fit Center   53 is at   0.302273  2.243671 -2.051981
      ESP Fit Center   54 is at  -0.021903  1.245959 -2.051981
      ESP Fit Center   55 is at   2.655506  1.245959 -2.769391
      ESP Fit Center   56 is at   2.165506  2.094664 -2.769391
      ESP Fit Center   57 is at   1.185506  2.094664 -2.769391
      ESP Fit Center   58 is at   0.695506  1.245959 -2.769391
      ESP Fit Center   59 is at   1.675506  1.245959 -3.031981
      ESP Fit Center   60 is at   0.686926 -2.238489 -0.388150
      ESP Fit Center   61 is at   1.535631 -2.855109 -0.388150
      ESP Fit Center   62 is at   2.584688 -2.855109 -0.388150
      ESP Fit Center   63 is at   0.362749 -2.220776 -1.368150
      ESP Fit Center   64 is at   1.080159 -2.938186 -1.368150
      ESP Fit Center   65 is at   2.060159 -3.200776 -1.368150
      ESP Fit Center   66 is at   3.040159 -2.938186 -1.368150
      ESP Fit Center   67 is at   3.757569 -1.240776 -2.348150
      ESP Fit Center   68 is at   0.362749 -1.240776 -2.348150
      ESP Fit Center   69 is at   0.686926 -2.238489 -2.348150
      ESP Fit Center   70 is at   1.535631 -2.855109 -2.348150
      ESP Fit Center   71 is at   2.584688 -2.855109 -2.348150
      ESP Fit Center   72 is at   3.433392 -2.238489 -2.348150
      ESP Fit Center   73 is at   3.040159 -1.240776 -3.065560
      ESP Fit Center   74 is at   2.550159 -0.392071 -3.065560
      ESP Fit Center   75 is at   1.570159 -0.392071 -3.065560
      ESP Fit Center   76 is at   1.080159 -1.240776 -3.065560
      ESP Fit Center   77 is at   1.570159 -2.089481 -3.065560
      ESP Fit Center   78 is at   2.550159 -2.089481 -3.065560
      ESP Fit Center   79 is at   2.060159 -1.240776 -3.328150
      ESP Fit Center   80 is at   0.811762 -0.309694  2.853523
      ESP Fit Center   81 is at   1.861762 -0.309694  2.572176
      ESP Fit Center   82 is at   0.286762  0.599632  2.572176
      ESP Fit Center   83 is at  -0.238238 -0.309694  2.572176
      ESP Fit Center   84 is at   0.552941  1.490448  1.803523
      ESP Fit Center   85 is at   0.552941 -2.109836 -0.296477
      ESP Fit Center   86 is at  -0.584652 -0.199499  2.567161
      ESP Fit Center   87 is at  -1.109652  0.709827  2.285815
      ESP Fit Center   88 is at   0.170844 -1.853805 -0.582839
      ESP Fit Center   89 is at  -0.584652 -0.199499 -1.632839
      ESP Fit Center   90 is at  -1.421412 -1.301205  2.779927
      ESP Fit Center   91 is at  -0.371412 -1.301205  2.498581
      ESP Fit Center   92 is at  -1.946412 -0.391878  2.498581
      ESP Fit Center   93 is at  -1.946412 -2.210531  2.498581
      ESP Fit Center   94 is at  -1.680234 -3.101347 -0.370073
      ESP Fit Center   95 is at   0.108536 -2.284443 -0.370073
      ESP Fit Center   96 is at  -1.946412 -2.210531 -1.138726
      ESP Fit Center   97 is at  -0.896412 -2.210531 -1.138726
      ESP Fit Center   98 is at  -1.421412 -1.301205 -1.420073
      ESP Fit Center   99 is at  -2.797755 -1.193557  2.589961
      ESP Fit Center  100 is at  -2.272755 -0.284231  2.308614
      ESP Fit Center  101 is at  -3.322755 -0.284231  2.308614
      ESP Fit Center  102 is at  -3.847755 -1.193557  2.308614
      ESP Fit Center  103 is at  -3.322755 -2.102884 -1.328692
      ESP Fit Center  104 is at  -2.272755 -2.102884 -1.328692
      ESP Fit Center  105 is at  -2.797755 -1.193557 -1.610039
      ESP Fit Center  106 is at  -3.331798  0.018636  2.158594
      ESP Fit Center  107 is at  -3.856798  0.927963  1.877247
      ESP Fit Center  108 is at  -2.806798 -0.890690 -1.760060
      ESP Fit Center  109 is at  -3.331798  0.018636 -2.041406
      ESP Fit Center  110 is at  -5.065884  0.160908  2.183926
      ESP Fit Center  111 is at  -4.549563  1.055203  1.948232
      ESP Fit Center  112 is at  -5.582206  1.055203  1.948232
      ESP Fit Center  113 is at  -6.098528  0.160908  1.948232
      ESP Fit Center  114 is at  -5.582206 -0.733387  1.948232
      ESP Fit Center  115 is at  -4.549563 -0.733387  1.948232
      ESP Fit Center  116 is at  -4.490878  1.930595  1.287832
      ESP Fit Center  117 is at  -5.640890  1.930595  1.287832
      ESP Fit Center  118 is at  -6.571270  1.254635  1.287832
      ESP Fit Center  119 is at  -6.926643  0.160908  1.287832
      ESP Fit Center  120 is at  -6.571270 -0.932819  1.287832
      ESP Fit Center  121 is at  -5.640890 -1.608779  1.287832
      ESP Fit Center  122 is at  -4.786200  2.464319  0.333526
      ESP Fit Center  123 is at  -5.888684  2.330453  0.333526
      ESP Fit Center  124 is at  -6.802675  1.699570  0.333526
      ESP Fit Center  125 is at  -7.318788  0.716199  0.333526
      ESP Fit Center  126 is at  -7.318788 -0.394383  0.333526
      ESP Fit Center  127 is at  -6.802675 -1.377754  0.333526
      ESP Fit Center  128 is at  -5.888684 -2.008637  0.333526
      ESP Fit Center  129 is at  -4.786200  2.464319 -0.725674
      ESP Fit Center  130 is at  -5.888684  2.330453 -0.725674
      ESP Fit Center  131 is at  -6.802675  1.699570 -0.725674
      ESP Fit Center  132 is at  -7.318788  0.716199 -0.725674
      ESP Fit Center  133 is at  -7.318788 -0.394383 -0.725674
      ESP Fit Center  134 is at  -6.802675 -1.377754 -0.725674
      ESP Fit Center  135 is at  -5.888684 -2.008637 -0.725674
      ESP Fit Center  136 is at  -4.786200 -2.142503 -0.725674
      ESP Fit Center  137 is at  -4.490878  1.930595 -1.679980
      ESP Fit Center  138 is at  -5.640890  1.930595 -1.679980
      ESP Fit Center  139 is at  -6.571270  1.254635 -1.679980
      ESP Fit Center  140 is at  -6.926643  0.160908 -1.679980
      ESP Fit Center  141 is at  -6.571270 -0.932819 -1.679980
      ESP Fit Center  142 is at  -5.640890 -1.608779 -1.679980
      ESP Fit Center  143 is at  -4.490878 -1.608779 -1.679980
      ESP Fit Center  144 is at  -4.033241  0.160908 -2.340380
      ESP Fit Center  145 is at  -4.549563  1.055203 -2.340380
      ESP Fit Center  146 is at  -5.582206  1.055203 -2.340380
      ESP Fit Center  147 is at  -6.098528  0.160908 -2.340380
      ESP Fit Center  148 is at  -5.582206 -0.733387 -2.340380
      ESP Fit Center  149 is at  -4.549563 -0.733387 -2.340380
      ESP Fit Center  150 is at  -5.065884  0.160908 -2.576074
      ESP Fit Center  151 is at  -2.508649  1.120934  1.929033
      ESP Fit Center  152 is at  -3.033649  2.030261  1.647687
      ESP Fit Center  153 is at  -1.983649  2.030261 -1.989620
      ESP Fit Center  154 is at  -3.558649  1.120934 -1.989620
      ESP Fit Center  155 is at  -1.983649  0.211608 -1.989620
      ESP Fit Center  156 is at  -2.508649  1.120934 -2.270967
      ESP Fit Center  157 is at  -1.136909  1.016959  2.145658
      ESP Fit Center  158 is at  -0.611909  1.926286  1.864311
      ESP Fit Center  159 is at  -1.661909  1.926286  1.864311
      ESP Fit Center  160 is at  -1.395730  2.817101  1.095658
      ESP Fit Center  161 is at  -0.611909  0.107633 -1.772995
      ESP Fit Center  162 is at  -1.136909  1.016959 -2.054342
      ESP Fit Center  163 is at   5.276698 -0.767771  2.317732
      ESP Fit Center  164 is at   6.264177 -0.767771  1.996881
      ESP Fit Center  165 is at   4.477810 -1.348197  1.996881
      ESP Fit Center  166 is at   5.581846 -1.706919  1.996881
      ESP Fit Center  167 is at   6.874473 -0.767771  1.156881
      ESP Fit Center  168 is at   6.500665  0.259259  1.156881
      ESP Fit Center  169 is at   5.554149 -2.341272  1.156881
      ESP Fit Center  170 is at   6.500665 -1.794801  1.156881
      ESP Fit Center  171 is at   6.874473 -0.767771  0.118584
      ESP Fit Center  172 is at   6.500665  0.259259  0.118584
      ESP Fit Center  173 is at   6.500665 -1.794801  0.118584
      ESP Fit Center  174 is at   6.574871  0.179749 -0.323377
      ESP Fit Center  175 is at   6.201062  1.206779 -0.323377
      ESP Fit Center  176 is at   5.254546  1.753250 -0.323377
      ESP Fit Center  177 is at   6.574871  0.179749 -1.361674
      ESP Fit Center  178 is at   6.201062  1.206779 -1.361674
      ESP Fit Center  179 is at   5.254546  1.753250 -1.361674
      ESP Fit Center  180 is at   4.178208  1.563463 -1.361674
      ESP Fit Center  181 is at   5.964575  0.179749 -2.201674
      ESP Fit Center  182 is at   5.282244  1.118897 -2.201674
      ESP Fit Center  183 is at   4.178208  0.760175 -2.201674
      ESP Fit Center  184 is at   5.282244 -0.759400 -2.201674
      ESP Fit Center  185 is at   4.977096  0.179749 -2.522525
      ESP Fit Center  186 is at   3.538808 -2.865320 -0.174660
      ESP Fit Center  187 is at   4.615146 -3.055108 -0.174660
      ESP Fit Center  188 is at   5.561662 -2.508636 -0.174660
      ESP Fit Center  189 is at   3.538808 -2.865320 -1.212957
      ESP Fit Center  190 is at   4.615146 -3.055108 -1.212957
      ESP Fit Center  191 is at   5.561662 -2.508636 -1.212957
      ESP Fit Center  192 is at   5.325175 -1.481606 -2.052957
      ESP Fit Center  193 is at   4.642843 -2.420755 -2.052957
      ESP Fit Center  194 is at   4.337695 -1.481606 -2.373808
      ESP Fit Center  195 is at   4.249808  0.950138  3.732023
      ESP Fit Center  196 is at   5.237287  0.950138  3.411171
      ESP Fit Center  197 is at   4.554956  1.889287  3.411171
      ESP Fit Center  198 is at   3.450920  1.530564  3.411171
      ESP Fit Center  199 is at   3.450920  0.369713  3.411171
      ESP Fit Center  200 is at   4.554956  0.010990  3.411171
      ESP Fit Center  201 is at   5.847583  0.950138  2.571171
      ESP Fit Center  202 is at   5.473774  1.977168  2.571171
      ESP Fit Center  203 is at   4.527258  2.523640  2.571171
      ESP Fit Center  204 is at   4.527258 -0.623363  2.571171
      ESP Fit Center  205 is at   5.473774 -0.076891  2.571171
      ESP Fit Center  206 is at   5.847583  0.950138  1.532874
      ESP Fit Center  207 is at   5.473774  1.977168  1.532874
      ESP Fit Center  208 is at   2.562060  1.419328  3.447183
      ESP Fit Center  209 is at   2.867208  2.358477  3.126332
      ESP Fit Center  210 is at   1.763173  1.999754  3.126332
      ESP Fit Center  211 is at   1.763173  0.838902  3.126332
      ESP Fit Center  212 is at   2.839511  2.992829  2.286332
      ESP Fit Center  213 is at   1.763173  2.803042  2.286332
      ESP Fit Center  214 is at   1.060643  1.965799  2.286332
      ESP Fit Center  215 is at   1.763173  2.803042  1.248035
      ESP Fit Center  216 is at   1.060643  1.965799  1.248035
      ESP Fit Center  217 is at   5.437701  1.994293  1.179166
      ESP Fit Center  218 is at   5.063893  3.021323  1.179166
      ESP Fit Center  219 is at   4.117377  3.567794  1.179166
      ESP Fit Center  220 is at   3.041039  3.378007  1.179166
      ESP Fit Center  221 is at   5.437701  1.994293  0.140869
      ESP Fit Center  222 is at   5.063893  3.021323  0.140869
      ESP Fit Center  223 is at   4.117377  3.567794  0.140869
      ESP Fit Center  224 is at   3.041039  3.378007  0.140869
      ESP Fit Center  225 is at   4.827406  1.994293 -0.699131
      ESP Fit Center  226 is at   4.145074  2.933441 -0.699131
      ESP Fit Center  227 is at   3.839926  1.994293 -1.019982
      ESP Fit Center  228 is at   1.049618 -1.185332  2.895302
      ESP Fit Center  229 is at   2.037097 -1.185332  2.574450
      ESP Fit Center  230 is at   0.250730 -1.765757  2.574450
      ESP Fit Center  231 is at   1.354765 -2.124480  2.574450
      ESP Fit Center  232 is at   1.327068 -2.758833  1.734450
      ESP Fit Center  233 is at   2.273584 -2.212362  1.734450
      ESP Fit Center  234 is at   1.327068 -2.758833  0.696153
      ESP Fit Center  235 is at   2.273584 -2.212362  0.696153
      ESP Fit Center  236 is at  -0.997827 -2.251545  2.675491
      ESP Fit Center  237 is at  -0.010347 -2.251545  2.354640
      ESP Fit Center  238 is at  -1.796714 -2.831971  2.354640
      ESP Fit Center  239 is at  -0.692679 -3.190693  2.354640
      ESP Fit Center  240 is at  -1.796714 -3.635259  1.514640
      ESP Fit Center  241 is at  -0.720376 -3.825046  1.514640
      ESP Fit Center  242 is at   0.226140 -3.278575  1.514640
      ESP Fit Center  243 is at  -1.796714 -3.635259  0.476343
      ESP Fit Center  244 is at  -0.720376 -3.825046  0.476343
      ESP Fit Center  245 is at   0.226140 -3.278575  0.476343
      ESP Fit Center  246 is at  -0.692679 -3.190693 -0.363657
      ESP Fit Center  247 is at  -3.445038 -2.046646  2.341940
      ESP Fit Center  248 is at  -4.243926 -1.466220  2.021089
      ESP Fit Center  249 is at  -4.243926 -2.627072  2.021089
      ESP Fit Center  250 is at  -3.139890 -2.985795  2.021089
      ESP Fit Center  251 is at  -4.946456 -2.593117  1.181089
      ESP Fit Center  252 is at  -4.243926 -3.430360  1.181089
      ESP Fit Center  253 is at  -3.167588 -3.620147  1.181089
      ESP Fit Center  254 is at  -4.946456 -2.593117  0.142792
      ESP Fit Center  255 is at  -4.243926 -3.430360  0.142792
      ESP Fit Center  256 is at  -3.167588 -3.620147  0.142792
      ESP Fit Center  257 is at  -4.243926 -2.627072 -0.697208
      ESP Fit Center  258 is at  -3.139890 -2.985795 -0.697208
      ESP Fit Center  259 is at  -2.633342  2.998851  0.855854
      ESP Fit Center  260 is at  -3.737378  2.640128  0.855854
      ESP Fit Center  261 is at  -1.714523  3.086732  0.015854
      ESP Fit Center  262 is at  -2.661039  3.633203  0.015854
      ESP Fit Center  263 is at  -3.737378  3.443416  0.015854
      ESP Fit Center  264 is at  -4.439907  2.606174  0.015854
      ESP Fit Center  265 is at  -1.714523  3.086732 -1.022444
      ESP Fit Center  266 is at  -2.661039  3.633203 -1.022444
      ESP Fit Center  267 is at  -3.737378  3.443416 -1.022444
      ESP Fit Center  268 is at  -4.439907  2.606174 -1.022444
      ESP Fit Center  269 is at  -2.633342  2.998851 -1.862444
      ESP Fit Center  270 is at  -3.737378  2.640128 -1.862444
      ESP Fit Center  271 is at  -3.737378  1.479277 -1.862444
      ESP Fit Center  272 is at  -2.938490  2.059702 -2.183295
      ESP Fit Center  273 is at   0.495515  1.871263  1.240834
      ESP Fit Center  274 is at  -0.186816  2.810411  1.240834
      ESP Fit Center  275 is at   0.732003  2.898293  0.400834
      ESP Fit Center  276 is at  -0.214513  3.444764  0.400834
      ESP Fit Center  277 is at  -1.290851  3.254976  0.400834
      ESP Fit Center  278 is at  -0.214513  3.444764 -0.637463
      ESP Fit Center  279 is at  -1.290851  3.254976 -0.637463
      ESP Fit Center  280 is at  -0.186816  2.810411 -1.477463
      ESP Fit Center  281 is at  -0.491964  1.871263 -1.798315
      ESP Fit Center  282 is at   4.281236 -2.417818  1.344533
      ESP Fit Center  283 is at   6.007134  1.268829  0.382208
      ESP Fit Center  284 is at   6.888102 -0.560521 -0.685892
      ESP Fit Center  285 is at   6.656387 -1.575734 -0.685892
      ESP Fit Center  286 is at   6.126800 -1.574977 -1.648218
      ESP Fit Center  287 is at   2.798767 -0.981631  2.662526
      ESP Fit Center  288 is at   3.840088 -0.981631  2.662526
      ESP Fit Center  289 is at   3.052389 -1.937117  1.996576
      ESP Fit Center  290 is at   4.098911 -1.786650  1.996576
      ESP Fit Center  291 is at   2.798767 -2.360983  1.034251
      ESP Fit Center  292 is at   2.980794  0.251686  3.442512
      ESP Fit Center  293 is at   4.280937  2.860326  2.776563
      ESP Fit Center  294 is at   3.234416  3.010793  2.776563
      ESP Fit Center  295 is at   2.272677 -0.264589  2.776563
      ESP Fit Center  296 is at   2.980794  3.434659  1.814237
      ESP Fit Center  297 is at   2.042596  2.982847  0.746137
      ESP Fit Center  298 is at   2.754726 -2.530461  0.574915
      ESP Fit Center  299 is at   3.935240 -0.070208 -2.476498
      ESP Fit Center  300 is at   3.669984  0.919741 -2.476498
      ESP Fit Center  301 is at  -0.024558 -0.070208 -2.476498
      ESP Fit Center  302 is at   3.026855 -0.070208 -3.083461
      ESP Fit Center  303 is at   0.883828 -0.070208 -3.083461
      ESP Fit Center  304 is at   1.955341 -0.070208 -3.296599
      ESP Fit Center  305 is at   1.134324  2.911546  0.324636
      ESP Fit Center  306 is at   1.938739  3.413874 -0.573534
      ESP Fit Center  307 is at   0.901106  3.287883 -0.573534
      ESP Fit Center  308 is at   3.609199  2.260839 -1.570428
      ESP Fit Center  309 is at   2.916068  3.043222 -1.570428
      ESP Fit Center  310 is at   1.938739  3.413874 -1.570428
      ESP Fit Center  311 is at   0.901106  3.287883 -1.570428
      ESP Fit Center  312 is at   3.092340  2.275348 -2.468598
      ESP Fit Center  313 is at   2.216689  2.911546 -2.468598
      ESP Fit Center  314 is at   1.134324  2.911546 -2.468598
      ESP Fit Center  315 is at   0.258673  2.275348 -2.468598
      ESP Fit Center  316 is at  -0.075796  1.245959 -2.468598
      ESP Fit Center  317 is at   2.647406  1.245959 -3.090151
      ESP Fit Center  318 is at   2.161456  2.087648 -3.090151
      ESP Fit Center  319 is at   1.189557  2.087648 -3.090151
      ESP Fit Center  320 is at   0.703607  1.245959 -3.090151
      ESP Fit Center  321 is at   1.675506  1.245959 -3.311981
      ESP Fit Center  322 is at   1.518977 -2.906364  0.028467
      ESP Fit Center  323 is at   2.601341 -2.906364  0.028467
      ESP Fit Center  324 is at   0.425532 -2.688929 -0.869703
      ESP Fit Center  325 is at   1.285759 -3.282701 -0.869703
      ESP Fit Center  326 is at   2.323392 -3.408692 -0.869703
      ESP Fit Center  327 is at  -0.060221 -1.763403 -1.866597
      ESP Fit Center  328 is at   0.425532 -2.688929 -1.866597
      ESP Fit Center  329 is at   1.285759 -3.282701 -1.866597
      ESP Fit Center  330 is at   2.323392 -3.408692 -1.866597
      ESP Fit Center  331 is at   3.300721 -3.038040 -1.866597
      ESP Fit Center  332 is at   3.811462 -1.240776 -2.764767
      ESP Fit Center  333 is at   0.308857 -1.240776 -2.764767
      ESP Fit Center  334 is at   0.643326 -2.270166 -2.764767
      ESP Fit Center  335 is at   1.518977 -2.906364 -2.764767
      ESP Fit Center  336 is at   2.601341 -2.906364 -2.764767
      ESP Fit Center  337 is at   3.476993 -2.270166 -2.764767
      ESP Fit Center  338 is at   3.032059 -1.240776 -3.386320
      ESP Fit Center  339 is at   2.546109 -0.399086 -3.386320
      ESP Fit Center  340 is at   1.574209 -0.399086 -3.386320
      ESP Fit Center  341 is at   1.088259 -1.240776 -3.386320
      ESP Fit Center  342 is at   1.574209 -2.082466 -3.386320
      ESP Fit Center  343 is at   2.546109 -2.082466 -3.386320
      ESP Fit Center  344 is at   2.060159 -1.240776 -3.608150
      ESP Fit Center  345 is at   0.811762 -0.309694  3.153523
      ESP Fit Center  346 is at   1.853083 -0.309694  2.915848
      ESP Fit Center  347 is at   0.291102  0.592116  2.915848
      ESP Fit Center  348 is at  -0.229559 -0.309694  2.915848
      ESP Fit Center  349 is at   0.544724  1.547602  2.249899
      ESP Fit Center  350 is at  -0.584652 -0.199499  2.867161
      ESP Fit Center  351 is at  -1.105313  0.702311  2.629487
      ESP Fit Center  352 is at  -1.105313 -1.101310 -1.695164
      ESP Fit Center  353 is at  -1.421412 -1.301205  3.079927
      ESP Fit Center  354 is at  -0.380091 -1.301205  2.842253
      ESP Fit Center  355 is at  -0.900752 -0.399394  2.842253
      ESP Fit Center  356 is at  -1.942073 -0.399394  2.842253
      ESP Fit Center  357 is at  -1.942073 -2.203015  2.842253
      ESP Fit Center  358 is at  -1.688451 -3.158501 -0.816448
      ESP Fit Center  359 is at  -0.641929 -3.008034 -0.816448
      ESP Fit Center  360 is at   0.157112 -2.315661 -0.816448
      ESP Fit Center  361 is at  -0.900752 -2.203015 -1.482398
      ESP Fit Center  362 is at  -1.421412 -1.301205 -1.720073
      ESP Fit Center  363 is at  -2.797755 -1.193557  2.889961
      ESP Fit Center  364 is at  -3.318415 -0.291747  2.652286
      ESP Fit Center  365 is at  -3.839076 -1.193557  2.652286
      ESP Fit Center  366 is at  -3.318415 -2.095368  2.652286
      ESP Fit Center  367 is at  -2.277094 -3.474720 -0.044089
      ESP Fit Center  368 is at  -3.064793 -3.050854 -1.006414
      ESP Fit Center  369 is at  -3.318415 -2.095368 -1.672364
      ESP Fit Center  370 is at  -2.277094 -2.095368 -1.672364
      ESP Fit Center  371 is at  -2.811137  0.920447  2.220919
      ESP Fit Center  372 is at  -3.852458  0.920447  2.220919
      ESP Fit Center  373 is at  -2.811137 -0.883174 -2.103732
      ESP Fit Center  374 is at  -3.331798  0.018636 -2.341406
      ESP Fit Center  375 is at  -5.065884  0.160908  2.523926
      ESP Fit Center  376 is at  -4.545435  1.062353  2.316878
      ESP Fit Center  377 is at  -5.586334  1.062353  2.316878
      ESP Fit Center  378 is at  -6.106783  0.160908  2.316878
      ESP Fit Center  379 is at  -5.586334 -0.740537  2.316878
      ESP Fit Center  380 is at  -4.545435 -0.740537  2.316878
      ESP Fit Center  381 is at  -4.104219  1.826561  1.727256
      ESP Fit Center  382 is at  -5.065884  2.084239  1.727256
      ESP Fit Center  383 is at  -6.027549  1.826561  1.727256
      ESP Fit Center  384 is at  -6.731537  1.122573  1.727256
      ESP Fit Center  385 is at  -6.989215  0.160908  1.727256
      ESP Fit Center  386 is at  -6.731537 -0.800757  1.727256
      ESP Fit Center  387 is at  -6.027549 -1.504745  1.727256
      ESP Fit Center  388 is at  -5.065884 -1.762422  1.727256
      ESP Fit Center  389 is at  -4.289339  2.550868  0.844825
      ESP Fit Center  390 is at  -5.328559  2.660094  0.844825
      ESP Fit Center  391 is at  -6.322360  2.337189  0.844825
      ESP Fit Center  392 is at  -7.098905  1.637984  0.844825
      ESP Fit Center  393 is at  -7.523923  0.683380  0.844825
      ESP Fit Center  394 is at  -7.523923 -0.361564  0.844825
      ESP Fit Center  395 is at  -7.098905 -1.316168  0.844825
      ESP Fit Center  396 is at  -6.322360 -2.015372  0.844825
      ESP Fit Center  397 is at  -4.814914  2.869305 -0.196074
      ESP Fit Center  398 is at  -5.810248  2.777074 -0.196074
      ESP Fit Center  399 is at  -6.705050  2.331515 -0.196074
      ESP Fit Center  400 is at  -7.378475  1.592804 -0.196074
      ESP Fit Center  401 is at  -7.739571  0.660707 -0.196074
      ESP Fit Center  402 is at  -7.739571 -0.338891 -0.196074
      ESP Fit Center  403 is at  -7.378475 -1.270987 -0.196074
      ESP Fit Center  404 is at  -6.705050 -2.009699 -0.196074
      ESP Fit Center  405 is at  -5.810248 -2.455258 -0.196074
      ESP Fit Center  406 is at  -5.328559  2.660094 -1.236973
      ESP Fit Center  407 is at  -6.322360  2.337189 -1.236973
      ESP Fit Center  408 is at  -7.098905  1.637984 -1.236973
      ESP Fit Center  409 is at  -7.523923  0.683380 -1.236973
      ESP Fit Center  410 is at  -7.523923 -0.361564 -1.236973
      ESP Fit Center  411 is at  -7.098905 -1.316168 -1.236973
      ESP Fit Center  412 is at  -6.322360 -2.015372 -1.236973
      ESP Fit Center  413 is at  -5.328559 -2.338278 -1.236973
      ESP Fit Center  414 is at  -4.289339 -2.229052 -1.236973
      ESP Fit Center  415 is at  -4.104219  1.826561 -2.119405
      ESP Fit Center  416 is at  -5.065884  2.084239 -2.119405
      ESP Fit Center  417 is at  -6.027549  1.826561 -2.119405
      ESP Fit Center  418 is at  -6.731537  1.122573 -2.119405
      ESP Fit Center  419 is at  -6.989215  0.160908 -2.119405
      ESP Fit Center  420 is at  -6.731537 -0.800757 -2.119405
      ESP Fit Center  421 is at  -6.027549 -1.504745 -2.119405
      ESP Fit Center  422 is at  -5.065884 -1.762422 -2.119405
      ESP Fit Center  423 is at  -4.104219 -1.504745 -2.119405
      ESP Fit Center  424 is at  -4.024985  0.160908 -2.709026
      ESP Fit Center  425 is at  -4.545435  1.062353 -2.709026
      ESP Fit Center  426 is at  -5.586334  1.062353 -2.709026
      ESP Fit Center  427 is at  -6.106783  0.160908 -2.709026
      ESP Fit Center  428 is at  -5.586334 -0.740537 -2.709026
      ESP Fit Center  429 is at  -4.545435 -0.740537 -2.709026
      ESP Fit Center  430 is at  -5.065884  0.160908 -2.916074
      ESP Fit Center  431 is at  -2.508649  1.120934  2.229033
      ESP Fit Center  432 is at  -3.029309  2.022745  1.991359
      ESP Fit Center  433 is at  -2.775688  2.978231  1.325409
      ESP Fit Center  434 is at  -3.737426  2.539019  1.325409
      ESP Fit Center  435 is at  -1.729166 -0.585895 -1.667342
      ESP Fit Center  436 is at  -1.467328  1.120934 -2.333292
      ESP Fit Center  437 is at  -1.987988  2.022745 -2.333292
      ESP Fit Center  438 is at  -3.549970  1.120934 -2.333292
      ESP Fit Center  439 is at  -3.029309  0.219124 -2.333292
      ESP Fit Center  440 is at  -1.987988  0.219124 -2.333292
      ESP Fit Center  441 is at  -2.508649  1.120934 -2.570967
      ESP Fit Center  442 is at  -0.616248  1.918770  2.207983
      ESP Fit Center  443 is at  -1.657569  1.918770  2.207983
      ESP Fit Center  444 is at  -2.178230  1.016959  2.207983
      ESP Fit Center  445 is at  -1.403948  2.874256  1.542033
      ESP Fit Center  446 is at  -1.657569  3.298122  0.579708
      ESP Fit Center  447 is at  -0.616248  1.918770 -2.116667
      ESP Fit Center  448 is at  -0.616248  0.115149 -2.116667
      ESP Fit Center  449 is at  -1.136909  1.016959 -2.354342
      ESP Fit Center  450 is at   5.276698 -0.767771  2.557732
      ESP Fit Center  451 is at   6.236698 -0.767771  2.300501
      ESP Fit Center  452 is at   4.796698 -1.599155  2.300501
      ESP Fit Center  453 is at   5.756698 -1.599155  2.300501
      ESP Fit Center  454 is at   6.939467 -0.767771  1.597732
      ESP Fit Center  455 is at   6.621906  0.209580  1.597732
      ESP Fit Center  456 is at   4.762874 -2.349158  1.597732
      ESP Fit Center  457 is at   5.790522 -2.349158  1.597732
      ESP Fit Center  458 is at   6.621906 -1.745122  1.597732
      ESP Fit Center  459 is at   7.196698 -0.767771  0.637732
      ESP Fit Center  460 is at   6.939467  0.192229  0.637732
      ESP Fit Center  461 is at   6.236698 -2.430540  0.637732
      ESP Fit Center  462 is at   6.939467 -1.727771  0.637732
      ESP Fit Center  463 is at   6.939467 -0.767771 -0.322268
      ESP Fit Center  464 is at   6.322304  1.157100  0.117475
      ESP Fit Center  465 is at   6.897096  0.179749 -0.842525
      ESP Fit Center  466 is at   6.639865  1.139749 -0.842525
      ESP Fit Center  467 is at   5.937096  1.842518 -0.842525
      ESP Fit Center  468 is at   6.639865  0.179749 -1.802525
      ESP Fit Center  469 is at   6.322304  1.157100 -1.802525
      ESP Fit Center  470 is at   5.490920  1.761136 -1.802525
      ESP Fit Center  471 is at   4.463272  1.761136 -1.802525
      ESP Fit Center  472 is at   6.322304 -0.797602 -1.802525
      ESP Fit Center  473 is at   5.937096  0.179749 -2.505294
      ESP Fit Center  474 is at   5.457096  1.011133 -2.505294
      ESP Fit Center  475 is at   4.497096  1.011133 -2.505294
      ESP Fit Center  476 is at   4.017096  0.179749 -2.505294
      ESP Fit Center  477 is at   5.457096 -0.651636 -2.505294
      ESP Fit Center  478 is at   4.977096  0.179749 -2.762525
      ESP Fit Center  479 is at   3.823872 -3.062994  0.266192
      ESP Fit Center  480 is at   4.851519 -3.062994  0.266192
      ESP Fit Center  481 is at   3.377695 -3.144375 -0.693808
      ESP Fit Center  482 is at   4.337695 -3.401606 -0.693808
      ESP Fit Center  483 is at   5.297695 -3.144375 -0.693808
      ESP Fit Center  484 is at   6.000464 -2.441606 -0.693808
      ESP Fit Center  485 is at   3.823872 -3.062994 -1.653808
      ESP Fit Center  486 is at   4.851519 -3.062994 -1.653808
      ESP Fit Center  487 is at   5.682904 -2.458957 -1.653808
      ESP Fit Center  488 is at   5.297695 -1.481606 -2.356577
      ESP Fit Center  489 is at   3.857695 -2.312991 -2.356577
      ESP Fit Center  490 is at   4.817695 -2.312991 -2.356577
      ESP Fit Center  491 is at   4.337695 -1.481606 -2.613808
[...]
  579 Fit       0.011972
  580 Fit       0.011033
  581 Fit       0.008692
  582 Fit       0.001724
  583 Fit       0.006997
  584 Fit       0.009268
  585 Fit       0.009066
  586 Fit       0.004166
  587 Fit       0.003271
  588 Fit       0.004256
  589 Fit      -0.002045
  590 Fit      -0.002490
  591 Fit       0.003747
  592 Fit       0.000776
  593 Fit       0.005605
  594 Fit       0.007029
  595 Fit      -0.002258
  596 Fit       0.006226
  597 Fit       0.012032
  598 Fit      -0.005818
  599 Fit       0.005500
  600 Fit      -0.020843
  601 Fit      -0.004514
  602 Fit       0.010832
  603 Fit       0.008684
  604 Fit       0.012046
  605 Fit       0.017178
  606 Fit       0.014557
  607 Fit       0.014684
  608 Fit       0.013540
  609 Fit       0.009675
  610 Fit      -0.004841
  611 Fit       0.012307
  612 Fit       0.013302
  613 Fit       0.012558
  614 Fit       0.011018
  615 Fit       0.016875
  616 Fit       0.014301
  617 Fit       0.017113
  618 Fit       0.015409
  619 Fit       0.012254
  620 Fit       0.012547
  621 Fit       0.016897
  622 Fit       0.014824
  623 Fit       0.012766
  624 Fit       0.018381
  625 Fit       0.006370
  626 Fit      -0.011080
  627 Fit      -0.013970
  628 Fit      -0.029516
  629 Fit      -0.027868
  630 Fit      -0.032548
  631 Fit      -0.036360
  632 Fit      -0.036715
  633 Fit      -0.007165
  634 Fit      -0.016203
  635 Fit      -0.014789
  636 Fit      -0.008650
  637 Fit      -0.019019
  638 Fit      -0.023250
  639 Fit      -0.022369
  640 Fit      -0.023313
  641 Fit      -0.027916
  642 Fit      -0.028761
  643 Fit      -0.027981
  644 Fit      -0.029068
  645 Fit      -0.030132
  646 Fit      -0.032283
  647 Fit      -0.033733
  648 Fit      -0.035476
  649 Fit      -0.036078
  650 Fit       0.003912
  651 Fit      -0.000394
  652 Fit      -0.011285
  653 Fit      -0.014972
  654 Fit      -0.014573
  655 Fit      -0.026147
  656 Fit      -0.025739
  657 Fit      -0.025098
  658 Fit      -0.022672
  659 Fit      -0.015530
  660 Fit      -0.017357
  661 Fit      -0.033512
  662 Fit      -0.032399
  663 Fit      -0.030169
  664 Fit      -0.026840
  665 Fit      -0.021672
  666 Fit      -0.029621
  667 Fit      -0.033244
  668 Fit      -0.038291
  669 Fit      -0.037009
  670 Fit      -0.034827
  671 Fit      -0.031707
  672 Fit      -0.035655
  673 Fit       0.010244
  674 Fit       0.012075
  675 Fit       0.001676
  676 Fit       0.006949
  677 Fit       0.020701
  678 Fit       0.000995
  679 Fit       0.003752
  680 Fit      -0.004057
  681 Fit      -0.021294
  682 Fit       0.005845
  683 Fit       0.016251
  684 Fit       0.003058
  685 Fit      -0.003121
  686 Fit       0.000343
  687 Fit       0.009454
  688 Fit       0.016809
  689 Fit       0.008295
  690 Fit      -0.004453
  691 Fit      -0.008860
  692 Fit      -0.018312
  693 Fit      -0.020090
  694 Fit      -0.000805
  695 Fit      -0.006238
  696 Fit      -0.001372
  697 Fit       0.005413
  698 Fit       0.006191
  699 Fit      -0.003923
  700 Fit      -0.002766
  701 Fit      -0.007035
  702 Fit      -0.019479
  703 Fit      -0.010775
  704 Fit      -0.014062
  705 Fit      -0.009813
  706 Fit      -0.009491
  707 Fit      -0.016569
  708 Fit      -0.009607
  709 Fit      -0.008630
  710 Fit      -0.009853
  711 Fit      -0.011582
  712 Fit      -0.011309
  713 Fit      -0.008469
  714 Fit      -0.005484
  715 Fit      -0.008569
  716 Fit      -0.010254
  717 Fit      -0.011940
  718 Fit      -0.011722
  719 Fit      -0.010939
  720 Fit      -0.010069
  721 Fit      -0.007124
  722 Fit       0.000029
  723 Fit      -0.008158
  724 Fit      -0.010963
  725 Fit      -0.010853
  726 Fit      -0.009504
  727 Fit      -0.008726
  728 Fit      -0.008916
  729 Fit      -0.008551
  730 Fit      -0.004566
  731 Fit      -0.008190
  732 Fit      -0.010144
  733 Fit      -0.008958
  734 Fit      -0.007117
  735 Fit      -0.006427
  736 Fit      -0.007275
  737 Fit      -0.008409
  738 Fit      -0.007313
  739 Fit      -0.000393
  740 Fit      -0.007484
  741 Fit      -0.009662
  742 Fit      -0.008350
  743 Fit      -0.006429
  744 Fit      -0.005840
  745 Fit      -0.007048
  746 Fit      -0.008891
  747 Fit      -0.009153
  748 Fit      -0.005581
  749 Fit      -0.006212
  750 Fit      -0.010090
  751 Fit      -0.009707
  752 Fit      -0.008115
  753 Fit      -0.007642
  754 Fit      -0.008959
  755 Fit      -0.010866
  756 Fit      -0.011303
  757 Fit      -0.009375
  758 Fit      -0.008024
  759 Fit      -0.007244
  760 Fit      -0.010297
  761 Fit      -0.011913
  762 Fit      -0.011278
  763 Fit      -0.010989
  764 Fit      -0.012229
  765 Fit      -0.013592
  766 Fit      -0.013553
  767 Fit      -0.013600
  768 Fit      -0.015472
  769 Fit      -0.014816
  770 Fit      -0.013317
  771 Fit      -0.013892
  772 Fit      -0.014065
  773 Fit      -0.015103
  774 Fit      -0.015406
  775 Fit      -0.015312
  776 Fit      -0.009614
  777 Fit      -0.007274
  778 Fit      -0.001606
  779 Fit      -0.004577
  780 Fit       0.005734
  781 Fit      -0.020375
  782 Fit      -0.018390
  783 Fit      -0.008944
  784 Fit      -0.004811
  785 Fit      -0.015300
  786 Fit      -0.018685
  787 Fit      -0.012840
  788 Fit      -0.002952
  789 Fit      -0.006198
  790 Fit      -0.009482
  791 Fit       0.001477
  792 Fit      -0.001103
  793 Fit       0.004344
  794 Fit      -0.021816
  795 Fit      -0.025015
  796 Fit      -0.021186
  797 Fit       0.021533
  798 Fit       0.015738
  799 Fit       0.018620
  800 Fit       0.019611
  801 Fit       0.021409
  802 Fit       0.013600
  803 Fit       0.016097
  804 Fit       0.018096
  805 Fit       0.017790
  806 Fit       0.018555
  807 Fit       0.015206
  808 Fit       0.016787
  809 Fit       0.015361
  810 Fit       0.014594
  811 Fit       0.014251
  812 Fit       0.011843
  813 Fit       0.011299
  814 Fit       0.009333
  815 Fit       0.003503
  816 Fit       0.007331
  817 Fit       0.005464
  818 Fit      -0.002231
  819 Fit       0.004412
  820 Fit       0.000372
  821 Fit       0.003250
  822 Fit       0.007187
  823 Fit       0.011141
  824 Fit      -0.003732
  825 Fit       0.005354
  826 Fit       0.009955
  827 Fit      -0.005406
  828 Fit       0.004371
  829 Fit       0.008957
  830 Fit       0.003918
  831 Fit      -0.001339
  832 Fit      -0.010899
  833 Fit       0.017352
  834 Fit       0.019281
  835 Fit       0.017958
  836 Fit       0.016876
  837 Fit       0.016038
  838 Fit       0.018680
  839 Fit       0.020811
  840 Fit       0.018996
  841 Fit       0.017896
  842 Fit       0.014868
  843 Fit       0.020284
  844 Fit       0.022152
  845 Fit       0.022292
  846 Fit       0.019272
  847 Fit       0.014179
  848 Fit       0.012970
  849 Fit       0.010375
  850 Fit       0.011709
  851 Fit       0.012650
  852 Fit       0.010143
  853 Fit       0.005777
  854 Fit       0.007628
  855 Fit       0.006065
  856 Fit       0.016832
  857 Fit       0.014352
  858 Fit       0.012231
  859 Fit       0.018554
  860 Fit       0.014958
  861 Fit       0.012312
  862 Fit       0.009125
  863 Fit       0.004614
  864 Fit       0.012147
  865 Fit       0.007504
  866 Fit       0.000314
  867 Fit       0.002363
  868 Fit       0.020992
  869 Fit       0.018978
  870 Fit       0.029261
  871 Fit       0.027223
  872 Fit       0.034264
  873 Fit       0.028793
  874 Fit       0.020261
  875 Fit       0.026965
  876 Fit       0.020748
  877 Fit       0.030567
  878 Fit       0.017672
  879 Fit       0.023201
  880 Fit       0.019319
  881 Fit       0.019993
  882 Fit       0.023315
  883 Fit       0.032769
  884 Fit       0.017520
  885 Fit       0.017620
  886 Fit       0.020088
  887 Fit       0.010450
  888 Fit       0.009389
  889 Fit       0.007405
  890 Fit       0.004180
  891 Fit       0.010615
  892 Fit       0.014129
  893 Fit       0.004619
  894 Fit       0.010770
  895 Fit       0.014584
  896 Fit       0.019163
  897 Fit       0.007891
  898 Fit       0.011821
  899 Fit       0.014466
  900 Fit       0.005089
  901 Fit       0.007987
  902 Fit       0.008346
  903 Fit      -0.000377
  904 Fit       0.007260
  905 Fit       0.005793
  906 Fit       0.002193
  907 Fit       0.009386
  908 Fit       0.008274
  909 Fit       0.006737
  910 Fit       0.002247
  911 Fit       0.005835
  912 Fit       0.006350
  913 Fit       0.003580
  914 Fit       0.000484
  915 Fit       0.001479
  916 Fit      -0.004697
  917 Fit       0.003215
  918 Fit       0.000423
  919 Fit       0.003546
  920 Fit       0.005232
  921 Fit      -0.005970
  922 Fit       0.002676
  923 Fit       0.007801
  924 Fit      -0.010903
  925 Fit       0.000867
  926 Fit      -0.006077
  927 Fit       0.011405
  928 Fit       0.009800
  929 Fit       0.016578
  930 Fit       0.016825
  931 Fit       0.011495
  932 Fit       0.013962
  933 Fit       0.011797
  934 Fit       0.013239
  935 Fit       0.011681
  936 Fit       0.010548
  937 Fit       0.006522
  938 Fit      -0.006897
  939 Fit       0.013340
  940 Fit       0.013969
  941 Fit       0.012336
  942 Fit       0.014182
  943 Fit       0.013925
  944 Fit       0.013569
  945 Fit       0.015189
  946 Fit       0.013597
  947 Fit       0.012614
  948 Fit       0.013420
  949 Fit       0.015603
  950 Fit       0.013646
  951 Fit       0.012063
  952 Fit       0.015016
  953 Fit       0.008323
  954 Fit       0.016461
  955 Fit      -0.001960
  956 Fit       0.005821
  957 Fit      -0.011420
  958 Fit      -0.024268
  959 Fit      -0.012904
  960 Fit      -0.014846
  961 Fit      -0.027909
  962 Fit      -0.024838
  963 Fit      -0.027846
  964 Fit      -0.031805
  965 Fit      -0.031284
  966 Fit      -0.008823
  967 Fit      -0.012822
  968 Fit      -0.015645
  969 Fit      -0.013668
  970 Fit      -0.008977
  971 Fit      -0.016385
  972 Fit      -0.020086
  973 Fit      -0.020582
  974 Fit      -0.018398
  975 Fit      -0.020107
  976 Fit      -0.023567
  977 Fit      -0.024929
  978 Fit      -0.024930
  979 Fit      -0.025337
  980 Fit      -0.027500
  981 Fit      -0.026589
  982 Fit      -0.027500
  983 Fit      -0.028901
  984 Fit      -0.030842
  985 Fit      -0.030983
  986 Fit       0.000139
  987 Fit      -0.005190
  988 Fit      -0.005278
  989 Fit      -0.014855
  990 Fit      -0.015758
  991 Fit      -0.015202
  992 Fit      -0.011259
  993 Fit      -0.025399
  994 Fit      -0.024314
  995 Fit      -0.023244
  996 Fit      -0.021975
  997 Fit      -0.019351
  998 Fit      -0.013899
  999 Fit      -0.016630
 1000 Fit      -0.030122
 1001 Fit      -0.029059
 1002 Fit      -0.027503
 1003 Fit      -0.025504
 1004 Fit      -0.022730
 1005 Fit      -0.019178
 1006 Fit      -0.025517
 1007 Fit      -0.028980
 1008 Fit      -0.031794
 1009 Fit      -0.029709
 1010 Fit      -0.027062
 1011 Fit      -0.030284
 1012 Fit       0.010155
 1013 Fit       0.012212
 1014 Fit       0.003704
 1015 Fit       0.006953
 1016 Fit       0.016724
 1017 Fit       0.003086
 1018 Fit       0.004333
 1019 Fit      -0.002062
 1020 Fit      -0.021440
 1021 Fit       0.006086
 1022 Fit       0.013665
 1023 Fit       0.003889
 1024 Fit      -0.001051
 1025 Fit       0.001586
 1026 Fit       0.008595
 1027 Fit       0.014359
 1028 Fit       0.012353
 1029 Fit       0.002613
 1030 Fit      -0.007012
 1031 Fit      -0.012526
 1032 Fit      -0.019123
 1033 Fit      -0.019741
 1034 Fit       0.000310
 1035 Fit      -0.004470
 1036 Fit      -0.000943
 1037 Fit       0.004565
 1038 Fit       0.000773
 1039 Fit       0.011757
 1040 Fit       0.002679
 1041 Fit      -0.005057
 1042 Fit      -0.008744
 1043 Fit      -0.018800
 1044 Fit      -0.011236
 1045 Fit      -0.013850
 1046 Fit      -0.007739
 1047 Fit      -0.015739
 1048 Fit      -0.007553
 1049 Fit      -0.006986
 1050 Fit      -0.008039
 1051 Fit      -0.009111
 1052 Fit      -0.008806
 1053 Fit      -0.006469
 1054 Fit      -0.004484
 1055 Fit      -0.007511
 1056 Fit      -0.008393
 1057 Fit      -0.009571
 1058 Fit      -0.009607
 1059 Fit      -0.009016
 1060 Fit      -0.007956
 1061 Fit      -0.005260
 1062 Fit      -0.000171
 1063 Fit      -0.006990
 1064 Fit      -0.008980
 1065 Fit      -0.009260
 1066 Fit      -0.008606
 1067 Fit      -0.008031
 1068 Fit      -0.007721
 1069 Fit      -0.006658
 1070 Fit      -0.002852
 1071 Fit      -0.005809
 1072 Fit      -0.008319
 1073 Fit      -0.008476
 1074 Fit      -0.007561
 1075 Fit      -0.006758
 1076 Fit      -0.006658
 1077 Fit      -0.006966
 1078 Fit      -0.006525
 1079 Fit      -0.003468
 1080 Fit      -0.000774
 1081 Fit      -0.006406
 1082 Fit      -0.008061
 1083 Fit      -0.007661
 1084 Fit      -0.006580
 1085 Fit      -0.005845
 1086 Fit      -0.005940
 1087 Fit      -0.006662
 1088 Fit      -0.007178
 1089 Fit      -0.006243
 1090 Fit      -0.002377
 1091 Fit      -0.004644
 1092 Fit      -0.007856
 1093 Fit      -0.007990
 1094 Fit      -0.006980
 1095 Fit      -0.006236
 1096 Fit      -0.006462
 1097 Fit      -0.007463
 1098 Fit      -0.008278
 1099 Fit      -0.007663
 1100 Fit      -0.004886
 1101 Fit      -0.005875
 1102 Fit      -0.008696
 1103 Fit      -0.008866
 1104 Fit      -0.008124
 1105 Fit      -0.007919
 1106 Fit      -0.008695
 1107 Fit      -0.009763
 1108 Fit      -0.009978
 1109 Fit      -0.009071
 1110 Fit      -0.009086
 1111 Fit      -0.007991
 1112 Fit      -0.009271
 1113 Fit      -0.010389
 1114 Fit      -0.010270
 1115 Fit      -0.010231
 1116 Fit      -0.010973
 1117 Fit      -0.011788
 1118 Fit      -0.012031
 1119 Fit      -0.012758
 1120 Fit      -0.014634
 1121 Fit      -0.013504
 1122 Fit      -0.011937
 1123 Fit      -0.011979
 1124 Fit      -0.012212
 1125 Fit      -0.012972
 1126 Fit      -0.013619
 1127 Fit      -0.013213
 1128 Fit      -0.007608
 1129 Fit      -0.006262
 1130 Fit      -0.002356
 1131 Fit      -0.005054
 1132 Fit       0.002193
 1133 Fit      -0.000269
 1134 Fit      -0.004505
 1135 Fit      -0.019743
 1136 Fit      -0.017638
 1137 Fit      -0.010083
 1138 Fit      -0.006667
 1139 Fit      -0.014610
 1140 Fit      -0.017558
 1141 Fit      -0.012701
 1142 Fit      -0.001738
 1143 Fit      -0.004546
 1144 Fit      -0.007172
 1145 Fit       0.001234
 1146 Fit      -0.001210
 1147 Fit       0.002362
 1148 Fit      -0.021554
 1149 Fit      -0.020368
 1150 Fit       0.019687
 1151 Fit       0.015410
 1152 Fit       0.017157
 1153 Fit       0.018030
 1154 Fit       0.020199
 1155 Fit       0.013224
 1156 Fit       0.014954
 1157 Fit       0.016535
 1158 Fit       0.016499
 1159 Fit       0.017517
 1160 Fit       0.019360
 1161 Fit       0.012696
 1162 Fit       0.014243
 1163 Fit       0.015514
 1164 Fit       0.015345
 1165 Fit       0.014501
 1166 Fit       0.014686
 1167 Fit       0.014597
 1168 Fit       0.012298
 1169 Fit       0.011709
 1170 Fit       0.010911
 1171 Fit       0.009128
 1172 Fit       0.009052
 1173 Fit       0.008422
 1174 Fit       0.006096
 1175 Fit      -0.000171
 1176 Fit       0.004764
 1177 Fit       0.002808
 1178 Fit      -0.004528
 1179 Fit       0.001897
 1180 Fit      -0.001686
 1181 Fit       0.002292
 1182 Fit       0.006974
 1183 Fit       0.010411
 1184 Fit      -0.004474
 1185 Fit       0.003382
 1186 Fit       0.007627
 1187 Fit      -0.008139
 1188 Fit       0.001310
 1189 Fit       0.005869
 1190 Fit      -0.003760
 1191 Fit      -0.011769
 1192 Fit       0.015599
 1193 Fit       0.016971
 1194 Fit       0.015992
 1195 Fit       0.015164
 1196 Fit       0.014910
 1197 Fit       0.016610
 1198 Fit       0.018227
 1199 Fit       0.016917
 1200 Fit       0.015977
 1201 Fit       0.014795
 1202 Fit       0.017750
 1203 Fit       0.019020
 1204 Fit       0.019512
 1205 Fit       0.017450
 1206 Fit       0.016279
 1207 Fit       0.012992
 1208 Fit       0.011599
 1209 Fit       0.009810
 1210 Fit       0.011439
 1211 Fit       0.011535
 1212 Fit       0.009207
 1213 Fit       0.006072
 1214 Fit       0.008911
 1215 Fit       0.007016
 1216 Fit       0.003822
 1217 Fit       0.002669
 1218 Fit       0.014632
 1219 Fit       0.012210
 1220 Fit       0.009912
 1221 Fit       0.007302
 1222 Fit       0.012865
 1223 Fit       0.009911
 1224 Fit       0.006600
 1225 Fit       0.001925
 1226 Fit      -0.005430
 1227 Fit       0.009473
 1228 Fit       0.004347
 1229 Fit      -0.003404
 1230 Fit      -0.000611
 1231 Fit       0.018064
 1232 Fit       0.017303
 1233 Fit       0.023955
 1234 Fit       0.022819
 1235 Fit       0.028515
 1236 Fit       0.024647
 1237 Fit       0.018790
 1238 Fit       0.024141
 1239 Fit       0.019212
 1240 Fit       0.014808
 1241 Fit       0.024928
 1242 Fit       0.015357
 1243 Fit       0.020067
 1244 Fit       0.016248
 1245 Fit       0.017580
 1246 Fit       0.020762
 1247 Fit       0.028442
 1248 Fit       0.017620
 1249 Fit       0.016189
 1250 Fit       0.017229
 1251 Fit       0.020747
 1252 Fit       0.012547
 1253 Fit       0.012262
 1254 Fit       0.012933
 1255 Fit       0.005526
 1256 Fit       0.003192
 1257 Fit       0.003109
 1258 Fit       0.008503
 1259 Fit       0.003427
 1260 Fit       0.008623
 1261 Fit       0.012242
 1262 Fit       0.016463
 1263 Fit       0.003334
 1264 Fit       0.008271
 1265 Fit       0.011361
 1266 Fit       0.014552
 1267 Fit       0.005909
 1268 Fit       0.008708
 1269 Fit       0.010649
 1270 Fit       0.001551
 1271 Fit       0.004133
 1272 Fit       0.003213
 1273 Fit      -0.000077
 1274 Fit       0.006283
 1275 Fit       0.004969
 1276 Fit       0.001933
 1277 Fit       0.005539
 1278 Fit       0.005663
 1279 Fit       0.005026
 1280 Fit       0.002354
 1281 Fit       0.002249
 1282 Fit       0.003212
 1283 Fit       0.000986
 1284 Fit      -0.002200
 1285 Fit      -0.001107
 1286 Fit       0.003527
 1287 Fit       0.003594
 1288 Fit      -0.003107
 1289 Fit       0.001979
 1290 Fit       0.004975
 1291 Fit      -0.002420
 1292 Fit       0.003697
 1293 Fit      -0.002810
 -----------------------------------------------------------------
 Leave Link  602 at Fri Aug 24 15:36:45 2018, MaxMem=   33554432 cpu:       0.4

 Test job not archived.
 1\1\GINC-NODE043\SP\RHF\6-31G(d)\C8H11Cl1N2O2S1\WULSDORT\24-Aug-2018\0
 \\#HF/6-31G* Geom=AllCheck Guess=Read Pop=(MK,ReadRadii) Integral=(Gri
 d=UltraFine) iop(6/33=2)\\Optimization for frag48-conf0\\0,1\C,0,1.155
 8758268,0.2358228775,0.2368071988\N,0,2.5156574221,-0.214210384,-0.101
 9598902\C,0,3.0428603937,-1.2499551733,0.7990799659\S,0,2.757682203,-0
 .5389878165,-1.7421963795\O,0,2.6482048206,-1.9617879768,-2.0667310068
 \O,0,1.9702467892,0.442807482,-2.4884142915\N,0,4.4264255895,-0.160990
 4241,-1.7607342812\C,0,5.2050530187,-0.4477116794,-2.9250583063\C,0,5.
 8520471253,0.5962484256,-3.5964276658\C,0,6.6851322392,0.3326629587,-4
 .682008339\C,0,6.847191767,-0.9827774961,-5.1110144282\Cl,0,7.88643146
 71,-1.324365951,-6.4877680844\C,0,6.1977743636,-2.031804707,-4.4605280
 246\C,0,5.3871800388,-1.7669903702,-3.3595207071\H,0,1.193732454,0.657
 0448708,1.2458258162\H,0,0.4240629951,-0.5846719303,0.2238346549\H,0,0
 .8430750108,1.0107224737,-0.4618741949\H,0,3.0544948148,-0.8342524923,
 1.8110941751\H,0,4.066061522,-1.4969582469,0.5121266161\H,0,2.43231166
 56,-2.1627795356,0.7894083663\H,0,4.5194744547,0.805610553,-1.45482601
 53\H,0,5.7054628732,1.6235344389,-3.2718529406\H,0,7.1908175938,1.1425
 102374,-5.1965405812\H,0,6.3358555198,-3.0516227932,-4.8031589792\H,0,
 4.8889254924,-2.5766617299,-2.8410133974\\Version=AM64L-G09RevC.01\Sta
 te=1-A\HF=-1424.8668132\RMSD=7.512e-09\Dipole=0.1987669,0.6428652,1.91
 26377\Quadrupole=-6.3394194,2.0245755,4.3148439,1.2516939,-5.1405625,0
 .6204488\PG=C01 [X(C8H11Cl1N2O2S1)]\\@


 MY DESCRIPTION OF EXPERIENCE IS NOT WHAT HAPPENS
 TO A MAN.  EXPERIENCE IS WHAT A MAN DOES WITH WHAT
 HAPPENS TO HIM.
                         - CHUCK KNOX, SEATTLE SEAHAWKS, 1985
 Job cpu time:  0 days  0 hours  2 minutes 22.0 seconds.
 File lengths (MBytes):  RWF=     35 Int=      0 D2E=      0 Chk=      5 Scr=      1
 Normal termination of Gaussian 09 at Fri Aug 24 15:36:47 2018.
