 Entering Gaussian System, Link 0=g09
 Initial command:
 /home/fb_chem/chemsoft/lx24-amd64/Gaussian_09_C.01_NBO_3.1_64_istanbul-64/g09/l1.exe /local/2400092.1.parallel/Gau-18950.inp -scrdir=/local/2400092.1.parallel/
 Entering Link 1 = /home/fb_chem/chemsoft/lx24-amd64/Gaussian_09_C.01_NBO_3.1_64_istanbul-64/g09/l1.exe PID=     18951.
  
 Copyright (c) 1988,1990,1992,1993,1995,1998,2003,2009,2011,
            Gaussian, Inc.  All Rights Reserved.
  
 This is part of the Gaussian(R) 09 program.  It is based on
 the Gaussian(R) 03 system (copyright 2003, Gaussian, Inc.),
 the Gaussian(R) 98 system (copyright 1998, Gaussian, Inc.),
 the Gaussian(R) 94 system (copyright 1995, Gaussian, Inc.),
 the Gaussian 92(TM) system (copyright 1992, Gaussian, Inc.),
 the Gaussian 90(TM) system (copyright 1990, Gaussian, Inc.),
 the Gaussian 88(TM) system (copyright 1988, Gaussian, Inc.),
 the Gaussian 86(TM) system (copyright 1986, Carnegie Mellon
 University), and the Gaussian 82(TM) system (copyright 1983,
 Carnegie Mellon University). Gaussian is a federally registered
 trademark of Gaussian, Inc.
  
 This software contains proprietary and confidential information,
 including trade secrets, belonging to Gaussian, Inc.
  
 This software is provided under written license and may be
 used, copied, transmitted, or stored only in accord with that
 written license.
  
 The following legend is applicable only to US Government
 contracts under FAR:
  
                    RESTRICTED RIGHTS LEGEND
  
 Use, reproduction and disclosure by the US Government is
 subject to restrictions as set forth in subparagraphs (a)
 and (c) of the Commercial Computer Software - Restricted
 Rights clause in FAR 52.227-19.
  
 Gaussian, Inc.
 340 Quinnipiac St., Bldg. 40, Wallingford CT 06492
  
  
 ---------------------------------------------------------------
 Warning -- This program may not be used in any manner that
 competes with the business of Gaussian, Inc. or will provide
 assistance to any competitor of Gaussian, Inc.  The licensee
 of this program is prohibited from giving any competitor of
 Gaussian, Inc. access to this program.  By using this program,
 the user acknowledges that Gaussian, Inc. is engaged in the
 business of creating and licensing software in the field of
 computational chemistry and represents and warrants to the
 licensee that it is not a competitor of Gaussian, Inc. and that
 it will not use this program in any manner prohibited above.
 ---------------------------------------------------------------
  

 Cite this work as:
 Gaussian 09, Revision C.01,
 M. J. Frisch, G. W. Trucks, H. B. Schlegel, G. E. Scuseria, 
 M. A. Robb, J. R. Cheeseman, G. Scalmani, V. Barone, B. Mennucci, 
 G. A. Petersson, H. Nakatsuji, M. Caricato, X. Li, H. P. Hratchian, 
 A. F. Izmaylov, J. Bloino, G. Zheng, J. L. Sonnenberg, M. Hada, 
 M. Ehara, K. Toyota, R. Fukuda, J. Hasegawa, M. Ishida, T. Nakajima, 
 Y. Honda, O. Kitao, H. Nakai, T. Vreven, J. A. Montgomery, Jr., 
 J. E. Peralta, F. Ogliaro, M. Bearpark, J. J. Heyd, E. Brothers, 
 K. N. Kudin, V. N. Staroverov, T. Keith, R. Kobayashi, J. Normand, 
 K. Raghavachari, A. Rendell, J. C. Burant, S. S. Iyengar, J. Tomasi, 
 M. Cossi, N. Rega, J. M. Millam, M. Klene, J. E. Knox, J. B. Cross, 
 V. Bakken, C. Adamo, J. Jaramillo, R. Gomperts, R. E. Stratmann, 
 O. Yazyev, A. J. Austin, R. Cammi, C. Pomelli, J. W. Ochterski, 
 R. L. Martin, K. Morokuma, V. G. Zakrzewski, G. A. Voth, 
 P. Salvador, J. J. Dannenberg, S. Dapprich, A. D. Daniels, 
 O. Farkas, J. B. Foresman, J. V. Ortiz, J. Cioslowski, 
 and D. J. Fox, Gaussian, Inc., Wallingford CT, 2010.
 
 ******************************************
 Gaussian 09:  AM64L-G09RevC.01 23-Sep-2011
                17-Feb-2018 
 ******************************************
 %nprocs=2
 Will use up to    2 processors via shared memory.
 %chk=frag50-conf1.chk
 ----------------------------------------------------------------------
 #HF/6-31G* Geom=AllCheck Guess=Read Pop=(MK,ReadRadii) Integral=(Grid=
 UltraFine) iop(6/33=2)
 ----------------------------------------------------------------------
 1/29=7,38=1/1;
 2/12=2,40=1/2;
 3/5=1,6=6,7=1,11=9,14=-4,16=1,25=1,30=1,75=-5,116=-2/1,2,3;
 4/5=1/1;
 5/5=2,38=6/2;
 6/7=2,8=2,9=2,10=2,15=8,20=101,28=1,33=2/1,2;
 99/5=1,9=1/99;
 Structure from the checkpoint file:  frag50-conf1.chk
 -----------------------------
 Optimization for frag50-conf1
 -----------------------------
 Charge =  1 Multiplicity = 1
 Redundant internal coordinates found in file.
 C,0,0.2276456397,2.2470387263,-2.0314638352
 C,0,-1.3724091115,8.1413661816,-1.3955933938
 C,0,-0.2384010908,-0.037882164,-1.3526262863
 C,0,-2.1481513381,1.4561273533,-1.7514673659
 C,0,-2.9266866068,4.0836340229,-5.4239774304
 C,0,0.9725292069,5.2587841812,-0.8222725834
 C,0,0.8704781675,4.6975479836,-2.2630116162
 C,0,0.5647952424,6.7330851935,-0.7000619372
 C,0,-0.2708356465,3.6706418108,-2.4275724531
 N,0,-2.4518412295,8.2397456292,-2.183742901
 N,0,-0.7884113447,6.9528907165,-1.2390583501
 N,0,-0.8079333732,3.5648037106,-3.8081169744
 N,0,-0.7000465323,1.3085126953,-1.6930219112
 N,0,-0.8916476093,9.2305976773,-0.7741390735
 O,0,1.4350094929,2.0248808413,-2.0393393081
 O,0,-0.8790741658,5.7735101013,-5.2309355173
 O,0,-2.3793042667,5.4568443879,-3.2068172176
 S,0,-1.6900491553,4.8826776839,-4.3986880482
 H,0,-0.6632845467,-0.3408057713,-0.3890947176
 H,0,0.8480201563,-0.0340727594,-1.2927277778
 H,0,-0.5594095815,-0.7561789456,-2.1172418829
 H,0,-2.5660420017,0.8044587623,-2.5298652095
 H,0,-2.4464228928,2.4792786316,-1.969901232
 H,0,-2.5883920366,1.1623797849,-0.7911494328
 H,0,-3.5423766144,4.8752573744,-5.8573627735
 H,0,-2.4148969888,3.5331875198,-6.216272537
 H,0,-3.5230812087,3.4149186631,-4.8029182179
 H,0,0.3664395287,4.6605262259,-0.1298924664
 H,0,2.0005775353,5.1844338987,-0.4559301118
 H,0,0.730098389,5.5150522197,-2.97925561
 H,0,1.8011308391,4.1934737737,-2.532836664
 H,0,0.5894389115,7.0290416064,0.3562976096
 H,0,1.2740588221,7.3648234507,-1.2510281785
 H,0,-1.1189591081,3.9453246086,-1.7979915847
 H,0,-2.7336680417,7.4348754465,-2.7390306673
 H,0,-3.03786936,9.0612667711,-2.1801382144
 H,0,-1.2278403098,6.1983112335,-1.7646907422
 H,0,-0.0830023925,3.3163356057,-4.4840648493
 H,0,-1.2514988125,10.1520596629,-0.9745482007
 H,0,-0.1454422504,9.1599699114,-0.0990381671
 Recover connectivity data from disk.
                          Input orientation:                          
 ---------------------------------------------------------------------
 Center     Atomic      Atomic             Coordinates (Angstroms)
 Number     Number       Type             X           Y           Z
 ---------------------------------------------------------------------
      1          6           0        0.227646    2.247039   -2.031464
      2          6           0       -1.372409    8.141366   -1.395593
      3          6           0       -0.238401   -0.037882   -1.352626
      4          6           0       -2.148151    1.456127   -1.751467
      5          6           0       -2.926687    4.083634   -5.423977
      6          6           0        0.972529    5.258784   -0.822273
      7          6           0        0.870478    4.697548   -2.263012
      8          6           0        0.564795    6.733085   -0.700062
      9          6           0       -0.270836    3.670642   -2.427572
     10          7           0       -2.451841    8.239746   -2.183743
     11          7           0       -0.788411    6.952891   -1.239058
     12          7           0       -0.807933    3.564804   -3.808117
     13          7           0       -0.700047    1.308513   -1.693022
     14          7           0       -0.891648    9.230598   -0.774139
     15          8           0        1.435009    2.024881   -2.039339
     16          8           0       -0.879074    5.773510   -5.230936
     17          8           0       -2.379304    5.456844   -3.206817
     18         16           0       -1.690049    4.882678   -4.398688
     19          1           0       -0.663285   -0.340806   -0.389095
     20          1           0        0.848020   -0.034073   -1.292728
     21          1           0       -0.559410   -0.756179   -2.117242
     22          1           0       -2.566042    0.804459   -2.529865
     23          1           0       -2.446423    2.479279   -1.969901
     24          1           0       -2.588392    1.162380   -0.791149
     25          1           0       -3.542377    4.875257   -5.857363
     26          1           0       -2.414897    3.533188   -6.216273
     27          1           0       -3.523081    3.414919   -4.802918
     28          1           0        0.366440    4.660526   -0.129892
     29          1           0        2.000578    5.184434   -0.455930
     30          1           0        0.730098    5.515052   -2.979256
     31          1           0        1.801131    4.193474   -2.532837
     32          1           0        0.589439    7.029042    0.356298
     33          1           0        1.274059    7.364823   -1.251028
     34          1           0       -1.118959    3.945325   -1.797992
     35          1           0       -2.733668    7.434875   -2.739031
     36          1           0       -3.037869    9.061267   -2.180138
     37          1           0       -1.227840    6.198311   -1.764691
     38          1           0       -0.083002    3.316336   -4.484065
     39          1           0       -1.251499   10.152060   -0.974548
     40          1           0       -0.145442    9.159970   -0.099038
 ---------------------------------------------------------------------
                    Distance matrix (angstroms):
                    1          2          3          4          5
     1  C    0.000000
     2  C    6.140652   0.000000
     3  C    2.428762   8.257598   0.000000
     4  C    2.519593   6.739499   2.457292   0.000000
     5  C    4.983176   5.925272   6.386679   4.582274   0.000000
     6  C    3.329806   3.759882   5.459148   5.006221   6.144961
     7  C    2.543982   4.200338   4.948001   4.458768   4.978660
     8  C    4.691579   2.493949   6.849596   6.025929   6.444022
     9  C    1.559497   4.718667   3.861310   2.980857   4.025239
    10  N    6.566230   1.340161   8.608670   6.804158   5.291301
    11  N    4.879070   1.333428   7.013296   5.685584   5.506215
    12  N    2.442422   5.204212   4.396947   3.236125   2.714646
    13  N    1.362346   6.872294   1.463477   1.456782   5.155507
    14  N    7.183577   1.343042   9.309463   7.935765   7.228666
    15  O    1.227658   6.760725   2.743514   3.639422   5.892252
    16  O    4.888502   4.534310   7.015984   5.688326   2.661891
    17  O    4.298895   3.391316   6.181708   4.263474   2.664795
    18  S    4.028386   4.442806   5.966379   4.354180   1.794146
    19  H    3.191876   8.571064   1.095756   2.699974   7.074511
    20  H    2.476704   8.472230   1.088078   3.377600   6.947744
    21  H    3.105822   8.963708   1.097102   2.748125   6.321573
    22  H    3.183415   7.519411   2.741048   1.097820   4.388501
    23  H    2.684840   5.791595   3.404774   1.087896   3.838652
    24  H    3.262657   7.109868   2.697840   1.096499   5.487373
    25  H    5.979808   5.940001   7.439613   5.522019   1.092504
    26  H    5.113691   6.749892   6.414416   4.931513   1.092086
    27  H    4.807583   6.210842   5.883491   3.877970   1.090221
    28  H    3.075737   4.091679   4.892438   4.384158   6.261375
    29  H    3.775432   4.582953   5.752363   5.726311   7.083162
    30  H    3.439576   3.718340   5.866770   5.125101   4.625765
    31  H    2.552614   5.191390   4.843239   4.868309   5.542835
    32  H    5.357224   2.855737   7.317592   6.557015   7.379034
    33  H    5.281646   2.761831   7.556316   6.846507   6.769488
    34  H    2.179915   4.222905   4.103617   2.693976   4.053983
    35  H    6.015287   2.038867   7.999411   6.087983   4.298490
    36  H    7.557738   2.058030   9.555957   7.668996   5.942363
    37  H    4.219261   1.983077   6.327630   4.830679   4.555032
    38  H    2.693539   5.872150   4.591387   3.897731   3.091718
    39  H    8.111368   2.057860  10.247157   8.776493   7.709051
    40  H    7.187634   2.055251   9.283351   8.129610   7.865080
                    6          7          8          9         10
     6  C    0.000000
     7  C    1.549558   0.000000
     8  C    1.534518   2.584505   0.000000
     9  C    2.577817   1.544090   3.614019   0.000000
    10  N    4.739836   4.857083   3.683942   5.068821   0.000000
    11  N    2.478834   2.981101   1.473092   3.528967   2.305520
    12  N    3.867154   2.547062   4.645686   1.485119   5.214989
    13  N    4.377255   3.778491   5.657895   2.510665   7.166002
    14  N    4.387798   5.086292   2.892107   5.833726   2.324430
    15  O    3.486154   2.740780   4.971733   2.401908   7.331644
    16  O    4.809333   3.609321   4.851222   3.556804   4.223896
    17  O    4.118260   3.468196   4.071896   2.871129   2.965886
    18  S    4.474542   3.339414   4.710432   2.714497   4.093436
    19  H    5.849695   5.590081   7.186433   4.516760   8.946818
    20  H    5.315183   4.830134   6.798963   4.032942   8.952042
    21  H    6.340628   5.639944   7.704629   4.447058   9.193061
    22  H    5.939560   5.199714   6.949743   3.673342   7.444215
    23  H    4.553234   4.001058   5.364214   2.522298   5.764437
    24  H    5.427859   5.160191   6.401847   3.786862   7.214366
    25  H    6.773743   5.694228   6.849682   4.890556   5.099464
    26  H    6.599059   5.270455   7.038927   4.355473   6.197931
    27  H    6.281393   5.234465   6.674908   4.035438   5.593442
    28  H    1.097564   2.192173   2.158689   2.581729   4.997181
    29  H    1.093900   2.186258   2.125886   3.367233   5.669594
    30  H    2.185640   1.095913   2.589528   2.169809   4.263981
    31  H    2.178875   1.092250   3.367078   2.139504   5.880642
    32  H    2.160925   3.517901   1.097312   4.446218   4.143307
    33  H    2.170289   2.881206   1.098049   4.173480   3.939261
    34  H    2.655471   2.177141   3.436872   1.091392   4.513029
    35  H    4.705872   4.550761   3.940782   4.509102   1.017638
    36  H    5.690867   5.858676   4.537648   6.064366   1.009128
    37  H    2.571476   2.627462   2.152431   2.782873   2.416865
    38  H    4.277380   2.783873   5.139309   2.095227   5.928140
    39  H    5.377140   5.992881   3.881192   6.714295   2.561234
    40  H    4.122157   5.062419   2.599122   5.964102   3.242265
                   11         12         13         14         15
    11  N    0.000000
    12  N    4.252009   0.000000
    13  N    5.663294   3.094530   0.000000
    14  N    2.326963   6.427539   7.977499   0.000000
    15  O    5.465284   3.245109   2.278505   7.677006   0.000000
    16  O    4.163441   2.628280   5.699569   5.640447   5.439990
    17  O    2.939587   2.531913   4.724419   4.729932   5.262164
    18  S    3.883554   1.692245   4.590794   5.716573   4.847630
    19  H    7.344120   5.192728   2.102815   9.581867   3.566878
    20  H    7.176242   4.692683   2.087889   9.440842   2.267438
    21  H    7.762307   4.646688   2.112509  10.082163   3.423167
    22  H    6.529117   3.513457   2.106256   8.768466   4.211705
    23  H    4.826628   2.691106   2.120657   7.030468   3.908557
    24  H    6.080343   4.247796   2.097755   8.244718   4.299959
    25  H    5.764514   3.659765   6.175941   7.199619   6.890306
    26  H    6.253998   2.895262   5.324442   8.024811   5.877375
    27  H    5.718108   2.895535   4.698715   7.548353   5.843992
    28  H    2.796223   4.013614   3.849255   4.783659   3.425559
    29  H    3.393993   4.663485   4.883291   4.983740   3.579082
    30  H    2.720577   2.618401   4.625439   4.614962   3.682613
    31  H    3.999247   2.971327   3.909498   5.976344   2.253970
    32  H    2.109367   5.594278   6.211838   2.884156   5.612102
    33  H    2.103239   5.031257   6.385245   2.898072   5.400215
    34  H    3.076869   2.069333   2.671944   5.388326   3.204545
    35  H    2.503248   4.452960   6.539271   3.237044   6.865529
    36  H    3.223498   6.150938   8.112206   2.571337   8.338897
    37  H    1.019204   3.359654   4.918723   3.207644   4.958197
    38  H    4.924652   1.021845   3.493139   7.028225   3.154187
    39  H    3.243316   7.184553   8.889805   1.009331   8.625668
    40  H    2.565980   6.745520   8.030800   1.008748   7.561223
                   16         17         18         19         20
    16  O    0.000000
    17  O    2.539296   0.000000
    18  S    1.464206   1.491743   0.000000
    19  H    7.802233   6.670610   6.664523   0.000000
    20  H    7.226365   6.650529   6.345331   1.787367   0.000000
    21  H    7.241140   6.565124   6.187087   1.780398   1.783850
    22  H    5.901958   4.705085   4.570747   3.084642   3.726857
    23  H    4.893147   3.224960   3.499633   3.692074   4.198673
    24  H    6.625405   4.931693   5.259465   2.475329   3.673147
    25  H    2.879661   2.952350   2.357733   8.086930   8.013301
    26  H    2.889409   3.571910   2.377003   7.213319   6.900237
    27  H    3.568883   2.832883   2.382798   6.462642   6.582059
    28  H    5.367558   4.200083   4.743534   5.112811   4.860387
    29  H    5.607146   5.179281   5.408985   6.134240   5.409384
    30  H    2.779622   3.118262   2.876074   6.552978   5.800954
    31  H    4.118222   4.418868   4.018052   5.588261   4.507598
    32  H    5.911858   4.897043   5.693227   7.512628   7.257667
    33  H    4.796657   4.562078   4.985453   7.992055   7.411269
    34  H    3.896782   2.420321   2.822835   4.534704   4.467651
    35  H    3.522676   2.063251   3.218278   8.382715   8.408654
    36  H    4.977661   3.805212   4.919267   9.861311   9.930400
    37  H    3.509551   1.988811   2.980347   6.706045   6.585936
    38  H    2.688727   3.389121   2.245733   5.520887   4.719817
    39  H    6.117780   5.319776   6.299480  10.525634  10.405120
    40  H    6.192148   5.325558   6.258437   9.519298   9.324285
                   21         22         23         24         25
    21  H    0.000000
    22  H    2.575349   0.000000
    23  H    3.748428   1.769997   0.000000
    24  H    3.091304   1.775314   1.773086   0.000000
    25  H    7.389159   5.347604   4.696188   6.353115   0.000000
    26  H    6.216394   4.588944   4.375316   5.923073   1.789184
    27  H    5.778777   3.591266   3.171845   4.694876   1.801337
    28  H    5.843582   5.406346   4.006952   4.626588   6.937497
    29  H    6.678650   6.658784   5.420866   6.111296   7.745670
    30  H    6.460204   5.766817   4.508326   5.894569   5.191039
    31  H    5.499448   5.527896   4.614875   5.611499   6.330116
    32  H    8.249116   7.551982   5.943736   6.770005   7.766612
    33  H    8.370341   7.708449   6.182824   7.321224   7.114373
    34  H    4.745435   3.534788   1.985196   3.304201   4.818321
    35  H    8.497493   6.635833   5.023147   6.569593   4.114566
    36  H   10.125658   8.277669   6.611851   8.032667   5.594567
    37  H    6.995429   5.609806   3.918961   5.306552   4.884415
    38  H    4.734363   4.036571   3.550696   4.955212   4.035276
    39  H   10.989741   9.566853   7.828802   9.090394   7.545505
    40  H   10.127908   9.032319   7.309328   8.390975   7.940795
                   26         27         28         29         30
    26  H    0.000000
    27  H    1.799897   0.000000
    28  H    6.786070   6.206213   0.000000
    29  H    7.443425   7.248331   1.746765   0.000000
    30  H    4.929205   5.081913   2.996887   2.844398   0.000000
    31  H    5.637248   5.840090   2.837361   2.309832   1.758684
    32  H    8.027808   7.522780   2.428163   2.460407   3.665769
    33  H    7.276227   7.157529   3.064954   2.431894   2.589270
    34  H    4.622826   3.884677   2.345310   3.614973   2.697859
    35  H    5.236029   4.587249   4.910731   5.717527   3.967506
    36  H    6.873000   6.244650   5.929532   6.587008   5.235629
    37  H    5.322459   4.716591   2.753012   3.628152   2.403234
    38  H    2.912954   3.456230   4.579046   4.904790   2.785667
    39  H    8.522830   8.074997   5.786891   5.960056   5.426547
    40  H    8.615780   8.157239   4.528572   4.531849   4.727330
                   31         32         33         34         35
    31  H    0.000000
    32  H    4.225605   0.000000
    33  H    3.460968   1.779031   0.000000
    34  H    3.021341   4.131452   4.209356   0.000000
    35  H    5.577957   4.559473   4.275621   3.958510   0.000000
    36  H    6.872825   4.870402   4.725875   5.477328   1.746439
    37  H    3.712693   2.913968   2.807864   2.255862   2.178519
    38  H    2.850723   6.137220   5.355781   2.946833   5.199379
    39  H    6.873977   3.861793   3.771415   6.262522   3.562768
    40  H    5.863327   2.299617   2.562150   5.570162   4.079758
                   36         37         38         39         40
    36  H    0.000000
    37  H    3.412523   0.000000
    38  H    6.858830   4.124492   0.000000
    39  H    2.415449   4.031998   7.772336   0.000000
    40  H    3.564667   3.566147   7.306191   1.724564   0.000000
 Stoichiometry    C9H22N5O3S(1+)
 Framework group  C1[X(C9H22N5O3S)]
 Deg. of freedom   114
 Full point group                 C1      NOp   1
 Largest Abelian subgroup         C1      NOp   1
 Largest concise Abelian subgroup C1      NOp   1
                         Standard orientation:                         
 ---------------------------------------------------------------------
 Center     Atomic      Atomic             Coordinates (Angstroms)
 Number     Number       Type             X           Y           Z
 ---------------------------------------------------------------------
      1          6           0       -2.495964   -0.958027   -0.301122
      2          6           0        3.565609   -0.665737    0.636695
      3          6           0       -4.673644   -1.204972    0.745593
      4          6           0       -3.001925    0.191204    1.883282
      5          6           0       -0.513818    3.596998    0.092437
      6          6           0        0.477597   -2.429643   -0.583768
      7          6           0       -0.148551   -1.181685   -1.255832
      8          6           0        1.992504   -2.322064   -0.364156
      9          6           0       -1.050290   -0.373177   -0.298025
     10          7           0        3.738737    0.597419    1.049604
     11          7           0        2.330378   -1.107825    0.398382
     12          7           0       -1.173001    1.067127   -0.638682
     13          7           0       -3.305547   -0.685486    0.760143
     14          7           0        4.627912   -1.470049    0.468297
     15          8           0       -2.850593   -1.640858   -1.257743
     16          8           0        0.946964    2.232856   -1.665658
     17          8           0        0.912107    1.443215    0.747488
     18         16           0        0.199386    2.033333   -0.422591
     19          1           0       -4.873287   -1.744220    1.678350
     20          1           0       -4.786865   -1.877894   -0.101915
     21          1           0       -5.393580   -0.381881    0.657006
     22          1           0       -3.645786    1.080007    1.857224
     23          1           0       -1.965853    0.522865    1.874725
     24          1           0       -3.190942   -0.336762    2.825532
     25          1           0        0.315660    4.291026    0.246891
     26          1           0       -1.161002    3.961531   -0.708137
     27          1           0       -1.076574    3.443128    1.013421
     28          1           0       -0.010185   -2.637590    0.377208
     29          1           0        0.310421   -3.318471   -1.199117
     30          1           0        0.638140   -0.529522   -1.651846
     31          1           0       -0.766910   -1.486148   -2.103148
     32          1           0        2.342506   -3.206183    0.183498
     33          1           0        2.509985   -2.289711   -1.332081
     34          1           0       -0.648578   -0.406443    0.716202
     35          1           0        2.940261    1.228231    1.059547
     36          1           0        4.619029    0.916195    1.426178
     37          1           0        1.600920   -0.411696    0.546950
     38          1           0       -1.537647    1.208611   -1.582706
     39          1           0        5.570910   -1.115954    0.532483
     40          1           0        4.512914   -2.449833    0.257652
 ---------------------------------------------------------------------
 Rotational constants (GHZ):      0.4833145      0.2512348      0.1956042
 Standard basis: 6-31G(d) (6D, 7F)
 There are   318 symmetry adapted basis functions of A   symmetry.
 Integral buffers will be    131072 words long.
 Raffenetti 1 integral format.
 Two-electron integral symmetry is turned on.
   318 basis functions,   616 primitive gaussians,   318 cartesian basis functions
    75 alpha electrons       75 beta electrons
       nuclear repulsion energy      1686.7479183480 Hartrees.
 NAtoms=   40 NActive=   40 NUniq=   40 SFac= 1.00D+00 NAtFMM=   60 NAOKFM=F Big=F
 One-electron integrals computed using PRISM.
 NBasis=   318 RedAO= T  NBF=   318
 NBsUse=   318 1.00D-06 NBFU=   318
 Initial guess read from the checkpoint file:  frag50-conf1.chk
 B after Tr=     0.000000    0.000000    0.000000
         Rot=    1.000000    0.000000    0.000000    0.000000 Ang=   0.00 deg.
 Initial guess orbital symmetries:
       Occupied  (A) (A) (A) (A) (A) (A) (A) (A) (A) (A) (A) (A)
                 (A) (A) (A) (A) (A) (A) (A) (A) (A) (A) (A) (A)
                 (A) (A) (A) (A) (A) (A) (A) (A) (A) (A) (A) (A)
                 (A) (A) (A) (A) (A) (A) (A) (A) (A) (A) (A) (A)
                 (A) (A) (A) (A) (A) (A) (A) (A) (A) (A) (A) (A)
                 (A) (A) (A) (A) (A) (A) (A) (A) (A) (A) (A) (A)
                 (A) (A) (A)
       Virtual   (A) (A) (A) (A) (A) (A) (A) (A) (A) (A) (A) (A)
                 (A) (A) (A) (A) (A) (A) (A) (A) (A) (A) (A) (A)
                 (A) (A) (A) (A) (A) (A) (A) (A) (A) (A) (A) (A)
                 (A) (A) (A) (A) (A) (A) (A) (A) (A) (A) (A) (A)
                 (A) (A) (A) (A) (A) (A) (A) (A) (A) (A) (A) (A)
                 (A) (A) (A) (A) (A) (A) (A) (A) (A) (A) (A) (A)
                 (A) (A) (A) (A) (A) (A) (A) (A) (A) (A) (A) (A)
                 (A) (A) (A) (A) (A) (A) (A) (A) (A) (A) (A) (A)
                 (A) (A) (A) (A) (A) (A) (A) (A) (A) (A) (A) (A)
                 (A) (A) (A) (A) (A) (A) (A) (A) (A) (A) (A) (A)
                 (A) (A) (A) (A) (A) (A) (A) (A) (A) (A) (A) (A)
                 (A) (A) (A) (A) (A) (A) (A) (A) (A) (A) (A) (A)
                 (A) (A) (A) (A) (A) (A) (A) (A) (A) (A) (A) (A)
                 (A) (A) (A) (A) (A) (A) (A) (A) (A) (A) (A) (A)
                 (A) (A) (A) (A) (A) (A) (A) (A) (A) (A) (A) (A)
                 (A) (A) (A) (A) (A) (A) (A) (A) (A) (A) (A) (A)
                 (A) (A) (A) (A) (A) (A) (A) (A) (A) (A) (A) (A)
                 (A) (A) (A) (A) (A) (A) (A) (A) (A) (A) (A) (A)
                 (A) (A) (A) (A) (A) (A) (A) (A) (A) (A) (A) (A)
                 (A) (A) (A) (A) (A) (A) (A) (A) (A) (A) (A) (A)
                 (A) (A) (A)
 Requested convergence on RMS density matrix=1.00D-08 within 128 cycles.
 Requested convergence on MAX density matrix=1.00D-06.
 Requested convergence on             energy=1.00D-06.
 No special actions if energy rises.
 SCF Done:  E(RHF) =  -1247.72596719     A.U. after   13 cycles
             Convg  =    0.7635D-08             -V/T =  2.0024

 **********************************************************************

            Population analysis using the SCF density.

 **********************************************************************

 Orbital symmetries:
 BldTbl:  Degeneracy threshold= 1.00D-02
       Occupied  (A) (A) (A) (A) (A) (A) (A) (A) (A) (A) (A) (A)
                 (A) (A) (A) (A) (A) (A) (A) (A) (A) (A) (A) (A)
                 (A) (A) (A) (A) (A) (A) (A) (A) (A) (A) (A) (A)
                 (A) (A) (A) (A) (A) (A) (A) (A) (A) (A) (A) (A)
                 (A) (A) (A) (A) (A) (A) (A) (A) (A) (A) (A) (A)
                 (A) (A) (A) (A) (A) (A) (A) (A) (A) (A) (A) (A)
                 (A) (A) (A)
       Virtual   (A) (A) (A) (A) (A) (A) (A) (A) (A) (A) (A) (A)
                 (A) (A) (A) (A) (A) (A) (A) (A) (A) (A) (A) (A)
                 (A) (A) (A) (A) (A) (A) (A) (A) (A) (A) (A) (A)
                 (A) (A) (A) (A) (A) (A) (A) (A) (A) (A) (A) (A)
                 (A) (A) (A) (A) (A) (A) (A) (A) (A) (A) (A) (A)
                 (A) (A) (A) (A) (A) (A) (A) (A) (A) (A) (A) (A)
                 (A) (A) (A) (A) (A) (A) (A) (A) (A) (A) (A) (A)
                 (A) (A) (A) (A) (A) (A) (A) (A) (A) (A) (A) (A)
                 (A) (A) (A) (A) (A) (A) (A) (A) (A) (A) (A) (A)
                 (A) (A) (A) (A) (A) (A) (A) (A) (A) (A) (A) (A)
                 (A) (A) (A) (A) (A) (A) (A) (A) (A) (A) (A) (A)
                 (A) (A) (A) (A) (A) (A) (A) (A) (A) (A) (A) (A)
                 (A) (A) (A) (A) (A) (A) (A) (A) (A) (A) (A) (A)
                 (A) (A) (A) (A) (A) (A) (A) (A) (A) (A) (A) (A)
                 (A) (A) (A) (A) (A) (A) (A) (A) (A) (A) (A) (A)
                 (A) (A) (A) (A) (A) (A) (A) (A) (A) (A) (A) (A)
                 (A) (A) (A) (A) (A) (A) (A) (A) (A) (A) (A) (A)
                 (A) (A) (A) (A) (A) (A) (A) (A) (A) (A) (A) (A)
                 (A) (A) (A) (A) (A) (A) (A) (A) (A) (A) (A) (A)
                 (A) (A) (A) (A) (A) (A) (A) (A) (A) (A) (A) (A)
                 (A) (A) (A)
 The electronic state is 1-A.
 Alpha  occ. eigenvalues --  -92.34266 -20.70187 -20.68680 -20.62742 -15.76468
 Alpha  occ. eigenvalues --  -15.75078 -15.74938 -15.73760 -15.69354 -11.56197
 Alpha  occ. eigenvalues --  -11.46025 -11.41368 -11.41174 -11.39604 -11.36467
 Alpha  occ. eigenvalues --  -11.35902 -11.34523 -11.33977  -9.31492  -7.00077
 Alpha  occ. eigenvalues --   -7.00041  -6.99941  -1.58480  -1.50068  -1.48109
 Alpha  occ. eigenvalues --   -1.46689  -1.36614  -1.36259  -1.35184  -1.33886
 Alpha  occ. eigenvalues --   -1.20264  -1.16743  -1.12035  -1.06604  -1.05747
 Alpha  occ. eigenvalues --   -1.02123  -0.99832  -0.96619  -0.94289  -0.93183
 Alpha  occ. eigenvalues --   -0.89734  -0.86817  -0.83481  -0.82750  -0.82654
 Alpha  occ. eigenvalues --   -0.81216  -0.79855  -0.78869  -0.78457  -0.77493
 Alpha  occ. eigenvalues --   -0.75009  -0.74875  -0.73406  -0.72877  -0.71842
 Alpha  occ. eigenvalues --   -0.71664  -0.70582  -0.68608  -0.66691  -0.66048
 Alpha  occ. eigenvalues --   -0.65317  -0.64767  -0.64078  -0.62564  -0.62367
 Alpha  occ. eigenvalues --   -0.62221  -0.61612  -0.60167  -0.59462  -0.58428
 Alpha  occ. eigenvalues --   -0.58259  -0.55279  -0.54658  -0.51473  -0.46492
 Alpha virt. eigenvalues --    0.04187   0.05542   0.06322   0.08871   0.09778
 Alpha virt. eigenvalues --    0.11564   0.12246   0.12527   0.12609   0.13607
 Alpha virt. eigenvalues --    0.13723   0.15576   0.16286   0.16659   0.16889
 Alpha virt. eigenvalues --    0.17305   0.18409   0.19280   0.20606   0.20669
 Alpha virt. eigenvalues --    0.20973   0.21447   0.22932   0.23170   0.23761
 Alpha virt. eigenvalues --    0.24196   0.24810   0.25454   0.26779   0.28052
 Alpha virt. eigenvalues --    0.28454   0.30604   0.32016   0.33047   0.33491
 Alpha virt. eigenvalues --    0.35563   0.38614   0.40314   0.41438   0.43867
 Alpha virt. eigenvalues --    0.46809   0.48679   0.51664   0.52656   0.53665
 Alpha virt. eigenvalues --    0.56870   0.58501   0.60289   0.60578   0.60939
 Alpha virt. eigenvalues --    0.62541   0.62811   0.64311   0.64619   0.65735
 Alpha virt. eigenvalues --    0.66371   0.67552   0.68494   0.71326   0.72408
 Alpha virt. eigenvalues --    0.73087   0.74337   0.75210   0.76855   0.77633
 Alpha virt. eigenvalues --    0.80100   0.80563   0.81060   0.82769   0.83498
 Alpha virt. eigenvalues --    0.83973   0.84668   0.85643   0.87059   0.88350
 Alpha virt. eigenvalues --    0.90585   0.92490   0.93103   0.93997   0.96253
 Alpha virt. eigenvalues --    0.97391   0.98489   0.98675   0.99341   1.00135
 Alpha virt. eigenvalues --    1.00698   1.00885   1.01577   1.01926   1.02240
 Alpha virt. eigenvalues --    1.02895   1.03295   1.03460   1.04267   1.04446
 Alpha virt. eigenvalues --    1.05304   1.05980   1.06901   1.07681   1.08154
 Alpha virt. eigenvalues --    1.09445   1.10699   1.11965   1.12627   1.13245
 Alpha virt. eigenvalues --    1.14115   1.14920   1.16723   1.18287   1.18666
 Alpha virt. eigenvalues --    1.20542   1.20841   1.22818   1.23992   1.27280
 Alpha virt. eigenvalues --    1.28097   1.29551   1.31841   1.32063   1.35619
 Alpha virt. eigenvalues --    1.38005   1.39210   1.40223   1.40992   1.42001
 Alpha virt. eigenvalues --    1.42585   1.43691   1.45931   1.48394   1.50094
 Alpha virt. eigenvalues --    1.51992   1.52821   1.54179   1.56718   1.60195
 Alpha virt. eigenvalues --    1.61260   1.61862   1.64367   1.67067   1.70327
 Alpha virt. eigenvalues --    1.73368   1.74691   1.76973   1.77544   1.78051
 Alpha virt. eigenvalues --    1.80045   1.82449   1.84821   1.85789   1.87118
 Alpha virt. eigenvalues --    1.88593   1.91102   1.94043   1.96288   1.98105
 Alpha virt. eigenvalues --    1.99527   1.99669   2.01042   2.01535   2.04048
 Alpha virt. eigenvalues --    2.05464   2.06253   2.08462   2.08927   2.10564
 Alpha virt. eigenvalues --    2.12920   2.13337   2.14026   2.16265   2.17616
 Alpha virt. eigenvalues --    2.18501   2.19903   2.20890   2.22643   2.24252
 Alpha virt. eigenvalues --    2.24665   2.26994   2.28666   2.29089   2.30749
 Alpha virt. eigenvalues --    2.32498   2.33626   2.34541   2.35537   2.37302
 Alpha virt. eigenvalues --    2.38585   2.40085   2.41094   2.44088   2.44952
 Alpha virt. eigenvalues --    2.45306   2.48840   2.49353   2.50958   2.51811
 Alpha virt. eigenvalues --    2.53284   2.55118   2.57659   2.60721   2.62561
 Alpha virt. eigenvalues --    2.64690   2.66409   2.66694   2.67962   2.70634
 Alpha virt. eigenvalues --    2.73039   2.75825   2.79440   2.81283   2.82670
 Alpha virt. eigenvalues --    2.84394   2.87197   2.89097   2.91665   2.92511
 Alpha virt. eigenvalues --    2.93845   3.00060   3.00423   3.05827   3.12590
 Alpha virt. eigenvalues --    3.22143   3.28414   3.29040   3.35051   3.45680
 Alpha virt. eigenvalues --    4.07228   4.10056   4.15694   4.18879   4.26382
 Alpha virt. eigenvalues --    4.32406   4.34350   4.37637   4.44215   4.45493
 Alpha virt. eigenvalues --    4.49957   4.55569   4.57593   4.67780   4.72832
 Alpha virt. eigenvalues --    4.79966   4.88623   4.97036
          Condensed to atoms (all electrons):
              1          2          3          4          5          6
     1  C    4.155807   0.000000  -0.031309  -0.027803  -0.000140  -0.002306
     2  C    0.000000   3.820789   0.000000   0.000000   0.000001   0.002027
     3  C   -0.031309   0.000000   4.993870  -0.049473   0.000000   0.000001
     4  C   -0.027803   0.000000  -0.049473   4.949931  -0.000031  -0.000012
     5  C   -0.000140   0.000001   0.000000  -0.000031   5.471314   0.000002
     6  C   -0.002306   0.002027   0.000001  -0.000012   0.000002   5.140264
     7  C   -0.049560   0.000005  -0.000076   0.000378  -0.000141   0.277593
     8  C    0.000214  -0.032967   0.000000   0.000000   0.000000   0.341478
     9  C    0.335154   0.000020   0.003711   0.000204   0.001437  -0.036838
    10  N    0.000000   0.419216   0.000000   0.000000  -0.000006  -0.000069
    11  N    0.000018   0.437689   0.000000   0.000001  -0.000010  -0.042024
    12  N   -0.049751  -0.000010  -0.000249  -0.002073  -0.061359   0.003854
    13  N    0.318904   0.000000   0.203421   0.220011   0.000006  -0.000152
    14  N    0.000000   0.407067   0.000000   0.000000   0.000000   0.000166
    15  O    0.579123   0.000000  -0.006854   0.001657   0.000000   0.001100
    16  O   -0.000077   0.000098   0.000000   0.000000  -0.057697   0.000046
    17  O    0.000107   0.000268   0.000000  -0.000382  -0.054035  -0.000133
    18  S   -0.000069   0.000200   0.000002  -0.000138   0.324288   0.000137
    19  H    0.001916   0.000000   0.398770  -0.002679   0.000000   0.000000
    20  H   -0.004467   0.000000   0.395426   0.002946   0.000000   0.000000
    21  H    0.000474   0.000000   0.399606  -0.001514   0.000000   0.000000
    22  H    0.000227   0.000000  -0.000816   0.400151  -0.000002   0.000000
    23  H   -0.004004   0.000000   0.003304   0.395097  -0.000224  -0.000011
    24  H    0.001236   0.000000  -0.002419   0.400324   0.000001   0.000000
    25  H    0.000001   0.000000   0.000000   0.000001   0.367694   0.000000
    26  H   -0.000001   0.000000   0.000000  -0.000001   0.358348   0.000000
    27  H    0.000014   0.000000   0.000000   0.000160   0.355829   0.000000
    28  H    0.000613  -0.000156   0.000003   0.000005   0.000000   0.399449
    29  H    0.000012  -0.000030   0.000000   0.000000   0.000000   0.405622
    30  H    0.003164   0.000011   0.000001  -0.000004   0.000022  -0.043603
    31  H   -0.005676   0.000001  -0.000006  -0.000023   0.000002  -0.023167
    32  H    0.000001  -0.001390   0.000000   0.000000   0.000000  -0.032862
    33  H   -0.000002  -0.002561   0.000000   0.000000   0.000000  -0.031081
    34  H   -0.029230   0.000019  -0.000097  -0.003790   0.000103  -0.000106
    35  H    0.000000  -0.015462   0.000000   0.000000  -0.000054  -0.000011
    36  H    0.000000  -0.023350   0.000000   0.000000   0.000000   0.000001
    37  H    0.000026  -0.020263   0.000000  -0.000006   0.000094  -0.005052
    38  H   -0.002661   0.000000  -0.000006  -0.000082  -0.000458   0.000002
    39  H    0.000000  -0.020150   0.000000   0.000000   0.000000   0.000000
    40  H    0.000000  -0.018662   0.000000   0.000000   0.000000  -0.000045
              7          8          9         10         11         12
     1  C   -0.049560   0.000214   0.335154   0.000000   0.000018  -0.049751
     2  C    0.000005  -0.032967   0.000020   0.419216   0.437689  -0.000010
     3  C   -0.000076   0.000000   0.003711   0.000000   0.000000  -0.000249
     4  C    0.000378   0.000000   0.000204   0.000000   0.000001  -0.002073
     5  C   -0.000141   0.000000   0.001437  -0.000006  -0.000010  -0.061359
     6  C    0.277593   0.341478  -0.036838  -0.000069  -0.042024   0.003854
     7  C    5.280165  -0.041763   0.324615   0.000002  -0.003843  -0.059654
     8  C   -0.041763   4.998668  -0.000598   0.001755   0.151521  -0.000051
     9  C    0.324615  -0.000598   5.209541   0.000002   0.000232   0.199020
    10  N    0.000002   0.001755   0.000002   7.082783  -0.070270  -0.000007
    11  N   -0.003843   0.151521   0.000232  -0.070270   7.292069  -0.000013
    12  N   -0.059654  -0.000051   0.199020  -0.000007  -0.000013   7.493555
    13  N    0.002146   0.000000  -0.108013   0.000000   0.000000   0.004508
    14  N   -0.000007  -0.003190   0.000000  -0.077037  -0.074649   0.000000
    15  O   -0.008492   0.000024  -0.083822   0.000000   0.000000  -0.000540
    16  O   -0.001529  -0.000020  -0.000688  -0.000073  -0.000114  -0.048620
    17  O   -0.000687   0.000234   0.003051  -0.009681  -0.013495  -0.050074
    18  S    0.000938  -0.000080  -0.022878   0.000521   0.001350   0.195784
    19  H    0.000003   0.000000  -0.000076   0.000000   0.000000  -0.000002
    20  H   -0.000008   0.000000   0.000514   0.000000   0.000000  -0.000014
    21  H    0.000000   0.000000  -0.000082   0.000000   0.000000   0.000024
    22  H   -0.000013   0.000000  -0.000226   0.000000   0.000000   0.000335
    23  H    0.000434   0.000000  -0.000712   0.000000  -0.000008  -0.003862
    24  H    0.000011   0.000000  -0.000388   0.000000   0.000000   0.000133
    25  H    0.000002   0.000000  -0.000021  -0.000001   0.000000   0.002169
    26  H    0.000003   0.000000  -0.000028   0.000000   0.000000   0.000371
    27  H    0.000005   0.000000  -0.000125   0.000000   0.000000   0.001133
    28  H   -0.046013  -0.039769  -0.003824  -0.000003  -0.001455   0.000161
    29  H   -0.029426  -0.038422   0.002251   0.000001   0.003272  -0.000060
    30  H    0.400226  -0.004285  -0.046155  -0.000002  -0.000959  -0.004219
    31  H    0.389566   0.002015  -0.035108   0.000000   0.000102   0.001289
    32  H    0.004144   0.409024  -0.000150  -0.000019  -0.046357   0.000001
    33  H   -0.003771   0.405922   0.000119   0.000081  -0.051925   0.000002
    34  H   -0.043858  -0.000057   0.402547  -0.000009   0.000641  -0.039930
    35  H    0.000001   0.000022  -0.000021   0.288560  -0.001500   0.000083
    36  H    0.000000  -0.000051   0.000000   0.323229   0.002592   0.000000
    37  H   -0.000914  -0.011554   0.000881  -0.001494   0.278387  -0.000389
    38  H    0.000276  -0.000003  -0.024402   0.000000  -0.000002   0.306499
    39  H    0.000000   0.000018   0.000000  -0.000716   0.002467   0.000000
    40  H    0.000008   0.003081   0.000000   0.002300  -0.002565   0.000000
             13         14         15         16         17         18
     1  C    0.318904   0.000000   0.579123  -0.000077   0.000107  -0.000069
     2  C    0.000000   0.407067   0.000000   0.000098   0.000268   0.000200
     3  C    0.203421   0.000000  -0.006854   0.000000   0.000000   0.000002
     4  C    0.220011   0.000000   0.001657   0.000000  -0.000382  -0.000138
     5  C    0.000006   0.000000   0.000000  -0.057697  -0.054035   0.324288
     6  C   -0.000152   0.000166   0.001100   0.000046  -0.000133   0.000137
     7  C    0.002146  -0.000007  -0.008492  -0.001529  -0.000687   0.000938
     8  C    0.000000  -0.003190   0.000024  -0.000020   0.000234  -0.000080
     9  C   -0.108013   0.000000  -0.083822  -0.000688   0.003051  -0.022878
    10  N    0.000000  -0.077037   0.000000  -0.000073  -0.009681   0.000521
    11  N    0.000000  -0.074649   0.000000  -0.000114  -0.013495   0.001350
    12  N    0.004508   0.000000  -0.000540  -0.048620  -0.050074   0.195784
    13  N    7.361683   0.000000  -0.091173   0.000000   0.000023  -0.000027
    14  N    0.000000   7.033972   0.000000   0.000000   0.000000  -0.000005
    15  O   -0.091173   0.000000   8.196265   0.000000  -0.000001  -0.000201
    16  O    0.000000   0.000000   0.000000   8.308472  -0.038326   0.486009
    17  O    0.000023   0.000000  -0.000001  -0.038326   8.520921   0.392594
    18  S   -0.000027  -0.000005  -0.000201   0.486009   0.392594  13.047717
    19  H   -0.045406   0.000000   0.000395   0.000000   0.000000   0.000000
    20  H   -0.029258   0.000000   0.008764   0.000000   0.000000   0.000000
    21  H   -0.047233   0.000000   0.000506   0.000000   0.000000   0.000000
    22  H   -0.048430   0.000000   0.000005   0.000000  -0.000001   0.000007
    23  H   -0.032902   0.000000   0.000018   0.000001   0.001721   0.000863
    24  H   -0.046778   0.000000  -0.000025   0.000000   0.000000  -0.000002
    25  H    0.000000   0.000000   0.000000   0.000552   0.000185  -0.020624
    26  H    0.000000   0.000000   0.000000   0.000092   0.001375  -0.011961
    27  H   -0.000013   0.000000   0.000000   0.001403   0.000468  -0.012769
    28  H   -0.000040  -0.000005   0.000120  -0.000001  -0.000024   0.000043
    29  H    0.000002   0.000002   0.000141   0.000000  -0.000001  -0.000008
    30  H   -0.000034  -0.000007   0.000439   0.003951  -0.001066   0.005617
    31  H    0.000554   0.000000   0.013035   0.000014   0.000009  -0.000229
    32  H    0.000000  -0.000068   0.000000   0.000000  -0.000006   0.000003
    33  H    0.000000   0.001801   0.000000   0.000000  -0.000005  -0.000016
    34  H    0.003269   0.000000   0.001692   0.000006   0.000480  -0.006541
    35  H    0.000000   0.001818   0.000000   0.000156   0.021397   0.000148
    36  H    0.000000  -0.000283   0.000000  -0.000001   0.000144   0.000014
    37  H   -0.000003   0.001896   0.000000   0.000100   0.025598   0.000174
    38  H    0.000364   0.000000   0.001820   0.000863   0.001019  -0.007526
    39  H    0.000000   0.322692   0.000000   0.000000   0.000001   0.000000
    40  H    0.000000   0.319131   0.000000   0.000000   0.000000   0.000000
             19         20         21         22         23         24
     1  C    0.001916  -0.004467   0.000474   0.000227  -0.004004   0.001236
     2  C    0.000000   0.000000   0.000000   0.000000   0.000000   0.000000
     3  C    0.398770   0.395426   0.399606  -0.000816   0.003304  -0.002419
     4  C   -0.002679   0.002946  -0.001514   0.400151   0.395097   0.400324
     5  C    0.000000   0.000000   0.000000  -0.000002  -0.000224   0.000001
     6  C    0.000000   0.000000   0.000000   0.000000  -0.000011   0.000000
     7  C    0.000003  -0.000008   0.000000  -0.000013   0.000434   0.000011
     8  C    0.000000   0.000000   0.000000   0.000000   0.000000   0.000000
     9  C   -0.000076   0.000514  -0.000082  -0.000226  -0.000712  -0.000388
    10  N    0.000000   0.000000   0.000000   0.000000   0.000000   0.000000
    11  N    0.000000   0.000000   0.000000   0.000000  -0.000008   0.000000
    12  N   -0.000002  -0.000014   0.000024   0.000335  -0.003862   0.000133
    13  N   -0.045406  -0.029258  -0.047233  -0.048430  -0.032902  -0.046778
    14  N    0.000000   0.000000   0.000000   0.000000   0.000000   0.000000
    15  O    0.000395   0.008764   0.000506   0.000005   0.000018  -0.000025
    16  O    0.000000   0.000000   0.000000   0.000000   0.000001   0.000000
    17  O    0.000000   0.000000   0.000000  -0.000001   0.001721   0.000000
    18  S    0.000000   0.000000   0.000000   0.000007   0.000863  -0.000002
    19  H    0.517798  -0.019810  -0.036243  -0.000915   0.000021   0.003703
    20  H   -0.019810   0.420470  -0.021295  -0.000077  -0.000085   0.000002
    21  H   -0.036243  -0.021295   0.521568   0.003731  -0.000075  -0.000891
    22  H   -0.000915  -0.000077   0.003731   0.522537  -0.026890  -0.037506
    23  H    0.000021  -0.000085  -0.000075  -0.026890   0.513325  -0.024434
    24  H    0.003703   0.000002  -0.000891  -0.037506  -0.024434   0.513399
    25  H    0.000000   0.000000   0.000000   0.000000   0.000003   0.000000
    26  H    0.000000   0.000000   0.000000  -0.000001   0.000003   0.000000
    27  H    0.000000   0.000000   0.000000   0.000107   0.000252  -0.000005
    28  H   -0.000001   0.000001   0.000000   0.000000   0.000005  -0.000002
    29  H    0.000000   0.000000   0.000000   0.000000   0.000000   0.000000
    30  H    0.000000   0.000000   0.000000   0.000000   0.000001   0.000000
    31  H    0.000000  -0.000004   0.000000   0.000001  -0.000010   0.000000
    32  H    0.000000   0.000000   0.000000   0.000000   0.000000   0.000000
    33  H    0.000000   0.000000   0.000000   0.000000   0.000000   0.000000
    34  H   -0.000008  -0.000015   0.000001   0.000211  -0.003076  -0.000055
    35  H    0.000000   0.000000   0.000000   0.000000   0.000000   0.000000
    36  H    0.000000   0.000000   0.000000   0.000000   0.000000   0.000000
    37  H    0.000000   0.000000   0.000000   0.000000  -0.000003   0.000001
    38  H    0.000000  -0.000003   0.000002   0.000040   0.000025  -0.000002
    39  H    0.000000   0.000000   0.000000   0.000000   0.000000   0.000000
    40  H    0.000000   0.000000   0.000000   0.000000   0.000000   0.000000
             25         26         27         28         29         30
     1  C    0.000001  -0.000001   0.000014   0.000613   0.000012   0.003164
     2  C    0.000000   0.000000   0.000000  -0.000156  -0.000030   0.000011
     3  C    0.000000   0.000000   0.000000   0.000003   0.000000   0.000001
     4  C    0.000001  -0.000001   0.000160   0.000005   0.000000  -0.000004
     5  C    0.367694   0.358348   0.355829   0.000000   0.000000   0.000022
     6  C    0.000000   0.000000   0.000000   0.399449   0.405622  -0.043603
     7  C    0.000002   0.000003   0.000005  -0.046013  -0.029426   0.400226
     8  C    0.000000   0.000000   0.000000  -0.039769  -0.038422  -0.004285
     9  C   -0.000021  -0.000028  -0.000125  -0.003824   0.002251  -0.046155
    10  N   -0.000001   0.000000   0.000000  -0.000003   0.000001  -0.000002
    11  N    0.000000   0.000000   0.000000  -0.001455   0.003272  -0.000959
    12  N    0.002169   0.000371   0.001133   0.000161  -0.000060  -0.004219
    13  N    0.000000   0.000000  -0.000013  -0.000040   0.000002  -0.000034
    14  N    0.000000   0.000000   0.000000  -0.000005   0.000002  -0.000007
    15  O    0.000000   0.000000   0.000000   0.000120   0.000141   0.000439
    16  O    0.000552   0.000092   0.001403  -0.000001   0.000000   0.003951
    17  O    0.000185   0.001375   0.000468  -0.000024  -0.000001  -0.001066
    18  S   -0.020624  -0.011961  -0.012769   0.000043  -0.000008   0.005617
    19  H    0.000000   0.000000   0.000000  -0.000001   0.000000   0.000000
    20  H    0.000000   0.000000   0.000000   0.000001   0.000000   0.000000
    21  H    0.000000   0.000000   0.000000   0.000000   0.000000   0.000000
    22  H    0.000000  -0.000001   0.000107   0.000000   0.000000   0.000000
    23  H    0.000003   0.000003   0.000252   0.000005   0.000000   0.000001
    24  H    0.000000   0.000000  -0.000005  -0.000002   0.000000   0.000000
    25  H    0.423297  -0.013851  -0.013823   0.000000   0.000000   0.000001
    26  H   -0.013851   0.431101  -0.015962   0.000000   0.000000   0.000002
    27  H   -0.013823  -0.015962   0.434105   0.000000   0.000000  -0.000002
    28  H    0.000000   0.000000   0.000000   0.512113  -0.021288   0.002842
    29  H    0.000000   0.000000   0.000000  -0.021288   0.456331   0.001591
    30  H    0.000001   0.000002  -0.000002   0.002842   0.001591   0.494436
    31  H    0.000000   0.000000   0.000000   0.001297  -0.004611  -0.019252
    32  H    0.000000   0.000000   0.000000  -0.003952  -0.001453   0.000201
    33  H    0.000000   0.000000   0.000000   0.003797  -0.001948   0.001056
    34  H   -0.000006  -0.000001  -0.000014   0.001877   0.000003   0.000453
    35  H    0.000009   0.000001   0.000000   0.000000   0.000000   0.000011
    36  H    0.000000   0.000000   0.000000   0.000000   0.000000  -0.000001
    37  H   -0.000003  -0.000002  -0.000002   0.000748   0.000071   0.000142
    38  H   -0.000028   0.000064   0.000050   0.000002   0.000001  -0.000057
    39  H    0.000000   0.000000   0.000000   0.000000   0.000000   0.000000
    40  H    0.000000   0.000000   0.000000  -0.000002   0.000002   0.000003
             31         32         33         34         35         36
     1  C   -0.005676   0.000001  -0.000002  -0.029230   0.000000   0.000000
     2  C    0.000001  -0.001390  -0.002561   0.000019  -0.015462  -0.023350
     3  C   -0.000006   0.000000   0.000000  -0.000097   0.000000   0.000000
     4  C   -0.000023   0.000000   0.000000  -0.003790   0.000000   0.000000
     5  C    0.000002   0.000000   0.000000   0.000103  -0.000054   0.000000
     6  C   -0.023167  -0.032862  -0.031081  -0.000106  -0.000011   0.000001
     7  C    0.389566   0.004144  -0.003771  -0.043858   0.000001   0.000000
     8  C    0.002015   0.409024   0.405922  -0.000057   0.000022  -0.000051
     9  C   -0.035108  -0.000150   0.000119   0.402547  -0.000021   0.000000
    10  N    0.000000  -0.000019   0.000081  -0.000009   0.288560   0.323229
    11  N    0.000102  -0.046357  -0.051925   0.000641  -0.001500   0.002592
    12  N    0.001289   0.000001   0.000002  -0.039930   0.000083   0.000000
    13  N    0.000554   0.000000   0.000000   0.003269   0.000000   0.000000
    14  N    0.000000  -0.000068   0.001801   0.000000   0.001818  -0.000283
    15  O    0.013035   0.000000   0.000000   0.001692   0.000000   0.000000
    16  O    0.000014   0.000000   0.000000   0.000006   0.000156  -0.000001
    17  O    0.000009  -0.000006  -0.000005   0.000480   0.021397   0.000144
    18  S   -0.000229   0.000003  -0.000016  -0.006541   0.000148   0.000014
    19  H    0.000000   0.000000   0.000000  -0.000008   0.000000   0.000000
    20  H   -0.000004   0.000000   0.000000  -0.000015   0.000000   0.000000
    21  H    0.000000   0.000000   0.000000   0.000001   0.000000   0.000000
    22  H    0.000001   0.000000   0.000000   0.000211   0.000000   0.000000
    23  H   -0.000010   0.000000   0.000000  -0.003076   0.000000   0.000000
    24  H    0.000000   0.000000   0.000000  -0.000055   0.000000   0.000000
    25  H    0.000000   0.000000   0.000000  -0.000006   0.000009   0.000000
    26  H    0.000000   0.000000   0.000000  -0.000001   0.000001   0.000000
    27  H    0.000000   0.000000   0.000000  -0.000014   0.000000   0.000000
    28  H    0.001297  -0.003952   0.003797   0.001877   0.000000   0.000000
    29  H   -0.004611  -0.001453  -0.001948   0.000003   0.000000   0.000000
    30  H   -0.019252   0.000201   0.001056   0.000453   0.000011  -0.000001
    31  H    0.411599  -0.000035  -0.000043   0.003060   0.000000   0.000000
    32  H   -0.000035   0.505134  -0.035309  -0.000021  -0.000001   0.000005
    33  H   -0.000043  -0.035309   0.503150   0.000018   0.000002  -0.000004
    34  H    0.003060  -0.000021   0.000018   0.481985  -0.000005   0.000000
    35  H    0.000000  -0.000001   0.000002  -0.000005   0.216542  -0.006663
    36  H    0.000000   0.000005  -0.000004   0.000000  -0.006663   0.274410
    37  H    0.000035   0.000976   0.001569   0.001851   0.001262   0.000014
    38  H    0.001197   0.000000   0.000000   0.003313  -0.000001   0.000000
    39  H    0.000000  -0.000017   0.000020   0.000000  -0.000007   0.001753
    40  H    0.000000   0.001649  -0.000376   0.000000  -0.000038  -0.000022
             37         38         39         40
     1  C    0.000026  -0.002661   0.000000   0.000000
     2  C   -0.020263   0.000000  -0.020150  -0.018662
     3  C    0.000000  -0.000006   0.000000   0.000000
     4  C   -0.000006  -0.000082   0.000000   0.000000
     5  C    0.000094  -0.000458   0.000000   0.000000
     6  C   -0.005052   0.000002   0.000000  -0.000045
     7  C   -0.000914   0.000276   0.000000   0.000008
     8  C   -0.011554  -0.000003   0.000018   0.003081
     9  C    0.000881  -0.024402   0.000000   0.000000
    10  N   -0.001494   0.000000  -0.000716   0.002300
    11  N    0.278387  -0.000002   0.002467  -0.002565
    12  N   -0.000389   0.306499   0.000000   0.000000
    13  N   -0.000003   0.000364   0.000000   0.000000
    14  N    0.001896   0.000000   0.322692   0.319131
    15  O    0.000000   0.001820   0.000000   0.000000
    16  O    0.000100   0.000863   0.000000   0.000000
    17  O    0.025598   0.001019   0.000001   0.000000
    18  S    0.000174  -0.007526   0.000000   0.000000
    19  H    0.000000   0.000000   0.000000   0.000000
    20  H    0.000000  -0.000003   0.000000   0.000000
    21  H    0.000000   0.000002   0.000000   0.000000
    22  H    0.000000   0.000040   0.000000   0.000000
    23  H   -0.000003   0.000025   0.000000   0.000000
    24  H    0.000001  -0.000002   0.000000   0.000000
    25  H   -0.000003  -0.000028   0.000000   0.000000
    26  H   -0.000002   0.000064   0.000000   0.000000
    27  H   -0.000002   0.000050   0.000000   0.000000
    28  H    0.000748   0.000002   0.000000  -0.000002
    29  H    0.000071   0.000001   0.000000   0.000002
    30  H    0.000142  -0.000057   0.000000   0.000003
    31  H    0.000035   0.001197   0.000000   0.000000
    32  H    0.000976   0.000000  -0.000017   0.001649
    33  H    0.001569   0.000000   0.000020  -0.000376
    34  H    0.001851   0.003313   0.000000   0.000000
    35  H    0.001262  -0.000001  -0.000007  -0.000038
    36  H    0.000014   0.000000   0.001753  -0.000022
    37  H    0.219727   0.000013  -0.000038  -0.000003
    38  H    0.000013   0.293527   0.000000   0.000000
    39  H   -0.000038   0.000000   0.266063  -0.009851
    40  H   -0.000003   0.000000  -0.009851   0.258410
 Mulliken atomic charges:
              1
     1  C    0.810045
     2  C    1.047589
     3  C   -0.306811
     4  C   -0.282854
     5  C   -0.704985
     6  C   -0.354272
     7  C   -0.390769
     8  C   -0.141165
     9  C   -0.119142
    10  N   -0.959063
    11  N   -0.861150
    12  N   -0.888043
    13  N   -0.665427
    14  N   -0.933295
    15  O   -0.613996
    16  O   -0.654618
    17  O   -0.801680
    18  S    1.626664
    19  H    0.182534
    20  H    0.246911
    21  H    0.181421
    22  H    0.187526
    23  H    0.181224
    24  H    0.193698
    25  H    0.254442
    26  H    0.250445
    27  H    0.249188
    28  H    0.193455
    29  H    0.227947
    30  H    0.205476
    31  H    0.264390
    32  H    0.200500
    33  H    0.209503
    34  H    0.225288
    35  H    0.493751
    36  H    0.428211
    37  H    0.506161
    38  H    0.426155
    39  H    0.437766
    40  H    0.446980
 Sum of Mulliken atomic charges =   1.00000
 Mulliken charges with hydrogens summed into heavy atoms:
              1
     1  C    0.810045
     2  C    1.047589
     3  C    0.304055
     4  C    0.279594
     5  C    0.049090
     6  C    0.067130
     7  C    0.079097
     8  C    0.268838
     9  C    0.106146
    10  N   -0.037101
    11  N   -0.354989
    12  N   -0.461888
    13  N   -0.665427
    14  N   -0.048549
    15  O   -0.613996
    16  O   -0.654618
    17  O   -0.801680
    18  S    1.626664
 Sum of Mulliken charges with hydrogens summed into heavy atoms =   1.00000
 DipInt: DoE/N= T F RetVal/Mat= T F Init=T NMatP=  1 IDeriv=0 Min/MaxMlt=  0  4
 Entering OneElI...
 OneElI was handed    33293355 working-precision words.
 Multipole integrals L=0 to 4 MinM= 0 MaxM= 0.
 Requested accuracy = 0.1000D-12
 PrsmSu:  NPrtUS=   1 ThrOK=F IAlg=1 NPAlg=1 LenDen=           0.
 Prism:   IPart=     0 DynPar=F LinDyn=F Incr=          56.
 PRISM was handed    32829312 working-precision words and  5664 shell-pairs
 IPart=  0 NShTot=        5664 NBatch=          87 AvBLen=        65.1
 PrSmSu:  NxtVal=             57.
 Electronic moments (au):
       -150.00000000          3.58808787          0.16862967          1.79315591
      -3563.49217014      -1689.45711834       -575.61580836        -16.50219139
          2.04556159          1.63254193       -274.20646510      -2188.31984336
        -85.30621002       -577.93686582       5168.14003423      -3548.61730960
        730.82928042        -91.44331621        909.72018683        237.66524718
    -198746.91903585     -44754.86299070      -6144.63251448      -2157.49837274
        430.00885523       4529.45934046        -15.97141103       2534.50966288
        165.31622035     -22864.27932886     -14118.95532351      -5105.28854781
       1463.80106408        168.44017328      -1686.13399709
 Electronic spatial extent (au):  <R**2>=           5828.5651
 DipInt: DoE/N= F T RetVal/Mat= T F Init=T NMatP=  1 IDeriv=0 Min/MaxMlt=  0  4
 Nuclear    moments (au):
        151.00000000          0.00000000          0.00000000          0.00000000
       3531.76432392       1624.93631692        489.50321854          0.00000000
          0.00000000          0.00000000        673.57643143       2259.70675851
         97.39171109        635.30825105      -5228.02859410       3670.56162771
       -733.73593928         94.67861512       -892.06388413       -193.07538647
     191975.41985955      40017.33030960       4247.01666212       1602.51922772
        -10.62523856      -4933.91639810         87.06410971      -2515.67673973
       -135.23082491      20374.79743610      11890.87206092       3782.79394550
      -1496.55957923       -126.33059565       1637.52769464
 Total      moments (au):
          1.00000000          3.58808787          0.16862967          1.79315591
        -31.72784622        -64.52080142        -86.11258982        -16.50219139
          2.04556159          1.63254193        399.36996633         71.38691516
         12.08550107         57.37138524        -59.88855987        121.94431811
         -2.90665886          3.23529891         17.65630270         44.58986071
      -6771.49917630      -4737.53268110      -1897.61585236       -554.97914502
        419.38361667       -404.45705764         71.09269868         18.83292315
         30.08539544      -2489.48189276      -2228.08326259      -1322.49460232
        -32.75851514         42.10957763        -48.60630245
 Traceless Quadrup. (au):
         29.05923293         -3.73372227        -25.32551067        -16.50219139
          2.04556159          1.63254193
 Charge=              1.0000 electrons
 Dipole moment (field-independent basis, Debye):
    X=              9.1200    Y=              0.4286    Z=              4.5577  Tot=             10.2045
 Quadrupole moment (field-independent basis, Debye-Ang):
   XX=            -42.6750   YY=            -86.7827   ZZ=           -115.8244
   XY=            -22.1960   XZ=              2.7514   YZ=              2.1958
 Traceless Quadrupole moment (field-independent basis, Debye-Ang):
   XX=             39.0857   YY=             -5.0220   ZZ=            -34.0637
   XY=            -22.1960   XZ=              2.7514   YZ=              2.1958
 Octapole moment (field-independent basis, Debye-Ang**2):
  XXX=            284.2561  YYY=             50.8105  ZZZ=              8.6020  XYY=             40.8347
  XXY=            -42.6264  XXZ=             86.7953  XZZ=             -2.0688  YZZ=              2.3028
  YYZ=             12.5671  XYZ=             31.7373
 Hexadecapole moment (field-independent basis, Debye-Ang**3):
 XXXX=          -2550.4711 YYYY=          -1784.3819 ZZZZ=           -714.7331 XXXY=           -209.0317
 XXXZ=            157.9600 YYYX=           -152.3379 YYYZ=             26.7769 ZZZX=              7.0934
 ZZZY=             11.3316 XXYY=           -937.6582 XXZZ=           -839.2029 YYZZ=           -498.1148
 XXYZ=            -12.3384 YYXZ=             15.8605 ZZXY=            -18.3075
 N-N= 1.686747918348D+03 E-N=-6.289397097339D+03  KE= 1.244750505896D+03
 Entering OneElI...
 OneElI was handed    33089789 working-precision words.
 Calculate electrostatic properties
    NBasis =   318  MinDer = 0  MaxDer = 0
    NGrid  =    40  NMatD  =   1
 Requested accuracy = 0.1000D-12
 PrsmSu:  NPrtUS=   2 ThrOK=T IAlg=1 NPAlg=1 LenDen=           0.
 Prism:   IPart=     0 DynPar=F LinDyn=F Incr=         512.
 PRISM was handed    16269119 working-precision words and  4955 shell-pairs
 PRISM was handed    16269119 working-precision words and  4955 shell-pairs
 IPart=  1 NShTot=       98600 NBatch=        2465 AvBLen=        40.0
 IPart=  0 NShTot=       99600 NBatch=        2491 AvBLen=        40.0
 PrSmSu:  NxtVal=           1025.
 --------------------------------------------------------
       Center         ----      EFG at Nuclei      ----
                      3XX-RR        3YY-RR        3ZZ-RR
 --------------------------------------------------------
     1   Atom        0.147569     -0.228361      0.080791
     2   Atom        0.255550      0.168781     -0.424331
     3   Atom       -0.279596      0.095106      0.184490
     4   Atom        0.119745     -0.007706     -0.112039
     5   Atom        0.083509     -0.201487      0.117978
     6   Atom       -0.096384      0.042471      0.053913
     7   Atom        0.016832     -0.031925      0.015093
     8   Atom        0.162527     -0.196281      0.033754
     9   Atom        0.122372     -0.290566      0.168194
    10   Atom       -0.257573     -0.486772      0.744345
    11   Atom       -0.542587     -0.112656      0.655243
    12   Atom        0.013174     -0.318165      0.304991
    13   Atom       -0.304788      0.470516     -0.165727
    14   Atom       -0.549593     -0.406302      0.955895
    15   Atom        1.263377     -0.749204     -0.514174
    16   Atom        0.114296      0.838887     -0.953183
    17   Atom        0.234711      0.448569     -0.683280
    18   Atom       -0.336007      0.162222      0.173785
    19   Atom        0.121265      0.047817     -0.169082
    20   Atom        0.128955     -0.020172     -0.108783
    21   Atom       -0.047945     -0.104116      0.152061
    22   Atom       -0.002115     -0.138215      0.140330
    23   Atom       -0.260141      0.113739      0.146402
    24   Atom        0.136775      0.039575     -0.176349
    25   Atom       -0.112171     -0.034683      0.146853
    26   Atom       -0.000898      0.091665     -0.090767
    27   Atom        0.036715      0.127490     -0.164205
    28   Atom        0.054446      0.130897     -0.185342
    29   Atom        0.130309     -0.140053      0.009744
    30   Atom       -0.082544     -0.015406      0.097950
    31   Atom        0.018649      0.102251     -0.120900
    32   Atom        0.094627     -0.133969      0.039342
    33   Atom        0.046461      0.136577     -0.183038
    34   Atom        0.084808      0.137323     -0.222131
    35   Atom       -0.148581     -0.055217      0.203798
    36   Atom       -0.262691      0.112419      0.150272
    37   Atom       -0.124629     -0.062434      0.187063
    38   Atom        0.126830      0.147317     -0.274147
    39   Atom       -0.321691      0.088838      0.232853
    40   Atom        0.147340     -0.358861      0.211521
 --------------------------------------------------------
                        XY            XZ            YZ
 --------------------------------------------------------
     1   Atom        0.231925     -0.054783      0.325989
     2   Atom        0.003146      0.090827      0.236459
     3   Atom       -0.151242      0.002642      0.046355
     4   Atom       -0.048752     -0.067756     -0.200874
     5   Atom        0.158342      0.045484     -0.124527
     6   Atom        0.006110     -0.026273      0.036589
     7   Atom        0.077387      0.084904      0.024731
     8   Atom       -0.100721     -0.070506     -0.240038
     9   Atom       -0.005184      0.013127      0.145135
    10   Atom        0.012244     -0.348097     -0.448314
    11   Atom       -0.076132     -0.174414     -0.520002
    12   Atom       -0.635230     -0.705852      0.370294
    13   Atom       -0.382954      0.275010     -0.611164
    14   Atom        0.105825      0.033825     -0.300327
    15   Atom        0.212747     -0.920302     -0.205004
    16   Atom       -0.206364      0.987116      0.340169
    17   Atom        0.464909     -0.985625      0.777745
    18   Atom       -0.365115     -0.264484      0.040404
    19   Atom       -0.045176      0.061718      0.183718
    20   Atom       -0.038539     -0.040580     -0.213266
    21   Atom        0.205839     -0.022998      0.026038
    22   Atom        0.202268     -0.013958      0.001808
    23   Atom       -0.129975      0.010474     -0.012740
    24   Atom       -0.042265      0.060165      0.172290
    25   Atom       -0.203253     -0.044990     -0.044757
    26   Atom        0.090790     -0.193166      0.096460
    27   Atom       -0.028822      0.196683      0.055184
    28   Atom       -0.028204      0.166373      0.070580
    29   Atom       -0.049541     -0.040003     -0.200233
    30   Atom       -0.177805      0.110853      0.086409
    31   Atom       -0.056022     -0.186428     -0.095914
    32   Atom        0.105423     -0.077067      0.165124
    33   Atom       -0.013826      0.172642      0.005425
    34   Atom        0.010770     -0.144664      0.016339
    35   Atom        0.240528     -0.008772     -0.028421
    36   Atom       -0.142832     -0.199182     -0.086723
    37   Atom        0.227206      0.033844     -0.072859
    38   Atom       -0.002313     -0.189854      0.082401
    39   Atom       -0.183089     -0.033335     -0.031939
    40   Atom       -0.062691     -0.014346     -0.129757
 --------------------------------------------------------


 ---------------------------------------------------------------------------------
              Nuclear Quadrupole in Principal Axis System
 ---------------------------------------------------------------------------------

       Atom             a.u.   MegaHertz   Gauss  10(-4) cm-1        Axes

              Baa    -0.5124   -68.755   -24.533   -22.934 -0.3263  0.8154 -0.4782
     1 C(13)  Bbb     0.1762    23.645     8.437     7.887  0.7838 -0.0495 -0.6190
              Bcc     0.3362    45.110    16.096    15.047  0.5284  0.5768  0.6230
 
              Baa    -0.5164   -69.292   -24.725   -23.113 -0.1093 -0.3238  0.9398
     2 C(13)  Bbb     0.2247    30.159    10.762    10.060 -0.6286  0.7549  0.1870
              Bcc     0.2916    39.133    13.964    13.053  0.7700  0.5703  0.2860
 
              Baa    -0.3336   -44.772   -15.976   -14.934  0.9413  0.3358 -0.0348
     3 C(13)  Bbb     0.1203    16.140     5.759     5.384 -0.2985  0.7796 -0.5505
              Bcc     0.2134    28.632    10.217     9.551 -0.1577  0.5286  0.8341
 
              Baa    -0.2846   -38.193   -13.628   -12.740  0.2021  0.5981  0.7755
     4 C(13)  Bbb     0.1363    18.284     6.524     6.099  0.9505 -0.3106 -0.0081
              Bcc     0.1484    19.910     7.104     6.641  0.2361  0.7387 -0.6313
 
              Baa    -0.3126   -41.954   -14.970   -13.994 -0.3837  0.8755  0.2937
     5 C(13)  Bbb     0.1473    19.769     7.054     6.594  0.7978  0.1540  0.5829
              Bcc     0.1653    22.186     7.916     7.400 -0.4651 -0.4580  0.7576
 
              Baa    -0.1019   -13.677    -4.880    -4.562  0.9786 -0.0885  0.1858
     6 C(13)  Bbb     0.0153     2.047     0.730     0.683  0.1850  0.7734 -0.6063
              Bcc     0.0867    11.630     4.150     3.880 -0.0900  0.6277  0.7733
 
              Baa    -0.1007   -13.514    -4.822    -4.508  0.6811 -0.6355 -0.3636
     7 C(13)  Bbb    -0.0331    -4.444    -1.586    -1.482 -0.2216 -0.6523  0.7249
              Bcc     0.1338    17.958     6.408     5.990  0.6979  0.4131  0.5851
 
              Baa    -0.3755   -50.384   -17.978   -16.806  0.2226  0.8237  0.5215
     8 C(13)  Bbb     0.1812    24.321     8.678     8.113  0.5177 -0.5531  0.6527
              Bcc     0.1942    26.063     9.300     8.694  0.8261  0.1247 -0.5495
 
              Baa    -0.3328   -44.657   -15.935   -14.896  0.0190  0.9602 -0.2787
     9 C(13)  Bbb     0.1211    16.256     5.800     5.422  0.9921 -0.0527 -0.1141
              Bcc     0.2117    28.402    10.134     9.474  0.1243  0.2743  0.9536
 
              Baa    -0.6607   -25.480    -9.092    -8.499  0.2785  0.8929  0.3539
    10 N(14)  Bbb    -0.3205   -12.363    -4.411    -4.124  0.9240 -0.3496  0.1549
              Bcc     0.9812    37.843    13.503    12.623 -0.2620 -0.2839  0.9224
 
              Baa    -0.6348   -24.482    -8.736    -8.166  0.8689  0.4071  0.2816
    11 N(14)  Bbb    -0.2930   -11.302    -4.033    -3.770 -0.4880  0.8001  0.3490
              Bcc     0.9278    35.784    12.769    11.936 -0.0832 -0.4406  0.8938
 
              Baa    -0.8371   -32.285   -11.520   -10.769  0.6867  0.6996  0.1976
    12 N(14)  Bbb    -0.3628   -13.993    -4.993    -4.668  0.3805 -0.5774  0.7223
              Bcc     1.1999    46.278    16.513    15.437 -0.6194  0.4208  0.6627
 
              Baa    -0.5516   -21.276    -7.592    -7.097 -0.3785  0.3664  0.8500
    13 N(14)  Bbb    -0.4580   -17.663    -6.302    -5.892  0.8621  0.4738  0.1796
              Bcc     1.0096    38.938    13.894    12.988 -0.3369  0.8008 -0.4952
 
              Baa    -0.6272   -24.189    -8.631    -8.069  0.8187 -0.5607 -0.1239
    14 N(14)  Bbb    -0.3921   -15.121    -5.396    -5.044  0.5741  0.8021  0.1643
              Bcc     1.0193    39.310    14.027    13.112  0.0072 -0.2056  0.9786
 
              Baa    -0.9646    69.800    24.906    23.283  0.2917  0.4923  0.8201
    15 O(17)  Bbb    -0.7207    52.150    18.608    17.395 -0.2857  0.8631 -0.4165
              Bcc     1.6853  -121.950   -43.515   -40.678  0.9128  0.1128 -0.3925
 
              Baa    -1.6064   116.235    41.475    38.772 -0.5056 -0.1606  0.8477
    16 O(17)  Bbb     0.7027   -50.846   -18.143   -16.960  0.8575  0.0149  0.5142
              Bcc     0.9037   -65.389   -23.332   -21.811 -0.0952  0.9869  0.1302
 
              Baa    -1.6944   122.606    43.749    40.897  0.4918 -0.3893  0.7788
    17 O(17)  Bbb     0.8185   -59.226   -21.133   -19.756  0.5848  0.8104  0.0359
              Bcc     0.8759   -63.380   -22.616   -21.141  0.6451 -0.4379 -0.6262
 
              Baa    -0.5915   -24.250    -8.653    -8.089  0.8700  0.4065  0.2792
    18 S(33)  Bbb     0.1308     5.362     1.913     1.788  0.0343 -0.6147  0.7881
              Bcc     0.4607    18.889     6.740     6.301 -0.4919  0.6760  0.5487
 
              Baa    -0.2881  -153.709   -54.847   -51.272 -0.1826 -0.4906  0.8521
    19 H(1)   Bbb     0.1319    70.382    25.114    23.477  0.9101  0.2436  0.3353
              Bcc     0.1562    83.327    29.733    27.795 -0.3720  0.8367  0.4020
 
              Baa    -0.2897  -154.588   -55.161   -51.565  0.1321  0.6266  0.7681
    20 H(1)   Bbb     0.1354    72.236    25.776    24.095  0.9646  0.0972 -0.2452
              Bcc     0.1543    82.352    29.385    27.470 -0.2283  0.7733 -0.5915
 
              Baa    -0.2865  -152.878   -54.551   -50.995 -0.6556  0.7510 -0.0790
    21 H(1)   Bbb     0.1317    70.276    25.076    23.442  0.7529  0.6581  0.0088
              Bcc     0.1548    82.601    29.474    27.553 -0.0586  0.0537  0.9968
 
              Baa    -0.2838  -151.418   -54.030   -50.508 -0.5839  0.8115 -0.0227
    22 H(1)   Bbb     0.1315    70.179    25.041    23.409  0.5254  0.3990  0.7515
              Bcc     0.1523    81.239    28.988    27.099 -0.6189 -0.4269  0.6594
 
              Baa    -0.3010  -160.584   -57.300   -53.565  0.9543  0.2987 -0.0138
    23 H(1)   Bbb     0.1347    71.861    25.642    23.970 -0.1721  0.5865  0.7914
              Bcc     0.1663    88.723    31.659    29.595 -0.2445  0.7529 -0.6111
 
              Baa    -0.2844  -151.744   -54.146   -50.616 -0.1711 -0.4799  0.8605
    24 H(1)   Bbb     0.1316    70.214    25.054    23.421  0.3906  0.7687  0.5064
              Bcc     0.1528    81.531    29.092    27.196  0.9045 -0.4228 -0.0560
 
              Baa    -0.2895  -154.460   -55.115   -51.522  0.7613  0.6324  0.1434
    25 H(1)   Bbb     0.1321    70.486    25.151    23.512 -0.6471  0.7266  0.2310
              Bcc     0.1574    83.974    29.964    28.011  0.0419 -0.2686  0.9623
 
              Baa    -0.2899  -154.655   -55.185   -51.587  0.5941 -0.3272  0.7349
    26 H(1)   Bbb     0.1320    70.413    25.125    23.487 -0.1730  0.8402  0.5139
              Bcc     0.1579    84.242    30.060    28.100  0.7856  0.4324 -0.4425
 
              Baa    -0.2938  -156.736   -55.927   -52.281 -0.5153 -0.1459  0.8445
    27 H(1)   Bbb     0.1358    72.471    25.859    24.174 -0.2394  0.9707  0.0216
              Bcc     0.1579    84.265    30.068    28.108  0.8229  0.1910  0.5351
 
              Baa    -0.2843  -151.698   -54.130   -50.601 -0.4457 -0.1794  0.8770
    28 H(1)   Bbb     0.1348    71.905    25.658    23.985  0.7772 -0.5637  0.2797
              Bcc     0.1496    79.793    28.472    26.616  0.4442  0.8063  0.3906
 
              Baa    -0.2886  -153.965   -54.939   -51.357  0.1499  0.8115  0.5648
    29 H(1)   Bbb     0.1380    73.613    26.267    24.555  0.9083 -0.3387  0.2456
              Bcc     0.1506    80.352    28.672    26.803 -0.3906 -0.4762  0.7878
 
              Baa    -0.2819  -150.403   -53.667   -50.169  0.7243  0.5958 -0.3469
    30 H(1)   Bbb     0.1311    69.972    24.968    23.340 -0.5669  0.8011  0.1921
              Bcc     0.1507    80.431    28.700    26.829  0.3923  0.0576  0.9180
 
              Baa    -0.2821  -150.517   -53.708   -50.207  0.5430  0.2770  0.7927
    31 H(1)   Bbb     0.1303    69.508    24.802    23.185 -0.4930  0.8694  0.0340
              Bcc     0.1518    81.009    28.906    27.022  0.6798  0.4093 -0.6086
 
              Baa    -0.2791  -148.921   -53.139   -49.675 -0.3290  0.8035 -0.4962
    32 H(1)   Bbb     0.1288    68.708    24.517    22.919  0.6545  0.5728  0.4935
              Bcc     0.1503    80.213    28.622    26.756 -0.6807  0.1625  0.7143
 
              Baa    -0.2759  -147.206   -52.527   -49.103 -0.4729 -0.0274  0.8807
    33 H(1)   Bbb     0.1283    68.440    24.421    22.829  0.5782  0.7446  0.3336
              Bcc     0.1476    78.766    28.106    26.274 -0.6649  0.6670 -0.3362
 
              Baa    -0.2804  -149.632   -53.392   -49.912  0.3690 -0.0458  0.9283
    34 H(1)   Bbb     0.1358    72.436    25.847    24.162 -0.4716  0.8515  0.2295
              Bcc     0.1447    77.196    27.545    25.750  0.8009  0.5224 -0.2926
 
              Baa    -0.3471  -185.222   -66.092   -61.783  0.7706 -0.6369 -0.0206
    35 H(1)   Bbb     0.1325    70.716    25.233    23.588  0.6003  0.7147  0.3589
              Bcc     0.2146   114.506    40.858    38.195 -0.2139 -0.2890  0.9331
 
              Baa    -0.3966  -211.632   -75.516   -70.593  0.8769  0.3088  0.3683
    36 H(1)   Bbb     0.1570    83.744    29.882    27.934 -0.3971  0.8972  0.1933
              Bcc     0.2397   127.888    45.634    42.659 -0.2708 -0.3158  0.9094
 
              Baa    -0.3333  -177.810   -63.447   -59.311  0.7396 -0.6582 -0.1403
    37 H(1)   Bbb     0.1220    65.084    23.223    21.710  0.6526  0.6504  0.3888
              Bcc     0.2113   112.726    40.223    37.601 -0.1647 -0.3791  0.9106
 
              Baa    -0.3611  -192.659   -68.745   -64.264  0.3580 -0.1478  0.9219
    38 H(1)   Bbb     0.1415    75.498    26.939    25.183  0.4844  0.8735 -0.0481
              Bcc     0.2196   117.161    41.806    39.081  0.7982 -0.4638 -0.3843
 
              Baa    -0.3944  -210.415   -75.081   -70.187  0.9315  0.3574  0.0677
    39 H(1)   Bbb     0.1547    82.522    29.446    27.526 -0.3634  0.9064  0.2153
              Bcc     0.2397   127.893    45.636    42.661  0.0156 -0.2252  0.9742
 
              Baa    -0.3946  -210.552   -75.130   -70.233  0.1178  0.9705  0.2105
    40 H(1)   Bbb     0.1550    82.681    29.503    27.580  0.9930 -0.1170 -0.0165
              Bcc     0.2397   127.871    45.627    42.653 -0.0086 -0.2110  0.9774
 

 ---------------------------------------------------------------------------------

 No NMR shielding tensors so no spin-rotation constants.
 Leave Link  601 at Sat Feb 17 21:07:54 2018, MaxMem=   33554432 cpu:       1.4
 Merz-Kollman atomic radii used.
 Read replacement radii for each type of atom:
 Atom Element Radius
    1     6    1.50
    2     6    1.50
    3     6    1.50
    4     6    1.50
    5     6    1.50
    6     6    1.50
    7     6    1.50
    8     6    1.50
    9     6    1.50
   10     7    1.50
   11     7    1.50
   12     7    1.50
   13     7    1.50
   14     7    1.50
   15     8    1.40
   16     8    1.40
   17     8    1.40
   18    16    1.75
   19     1    1.20
   20     1    1.20
   21     1    1.20
   22     1    1.20
   23     1    1.20
   24     1    1.20
   25     1    1.20
   26     1    1.20
   27     1    1.20
   28     1    1.20
   29     1    1.20
   30     1    1.20
   31     1    1.20
   32     1    1.20
   33     1    1.20
   34     1    1.20
   35     1    1.20
   36     1    1.20
   37     1    1.20
   38     1    1.20
   39     1    1.20
   40     1    1.20
 Generate VDW surfaces: Layer= 4 Dens= 1 Start= 1.400 Inc= 0.200

 **********************************************************************

            Electrostatic Properties Using The SCF Density

 **********************************************************************

       Atomic Center    1 is at  -2.495964 -0.958027 -0.301122
       Atomic Center    2 is at   3.565609 -0.665737  0.636695
       Atomic Center    3 is at  -4.673644 -1.204972  0.745593
       Atomic Center    4 is at  -3.001925  0.191204  1.883282
       Atomic Center    5 is at  -0.513818  3.596998  0.092437
       Atomic Center    6 is at   0.477597 -2.429643 -0.583768
[...]
  852 Fit       0.038631
  853 Fit       0.036534
  854 Fit       0.040679
  855 Fit       0.053831
  856 Fit       0.069054
  857 Fit       0.053955
  858 Fit       0.041069
  859 Fit       0.039451
  860 Fit       0.050644
  861 Fit       0.048887
  862 Fit       0.090350
  863 Fit       0.083757
  864 Fit       0.085235
  865 Fit       0.072590
  866 Fit       0.066520
  867 Fit       0.065919
  868 Fit       0.071990
  869 Fit       0.083341
  870 Fit       0.062070
  871 Fit       0.057601
  872 Fit       0.058198
  873 Fit       0.065039
  874 Fit       0.077926
  875 Fit       0.079955
  876 Fit       0.070081
  877 Fit       0.057548
  878 Fit       0.055560
  879 Fit       0.061608
  880 Fit       0.070916
  881 Fit       0.070410
  882 Fit       0.064128
  883 Fit       0.059222
  884 Fit       0.094620
  885 Fit       0.106944
  886 Fit       0.096563
  887 Fit       0.095380
  888 Fit       0.099164
  889 Fit       0.102156
  890 Fit       0.106130
  891 Fit       0.104086
  892 Fit       0.109377
  893 Fit       0.087509
  894 Fit       0.095214
  895 Fit       0.111626
  896 Fit       0.082131
  897 Fit       0.081940
  898 Fit       0.074732
  899 Fit       0.074592
  900 Fit       0.080777
  901 Fit       0.072758
  902 Fit       0.069942
  903 Fit       0.069713
  904 Fit       0.071997
  905 Fit       0.077375
  906 Fit       0.086188
  907 Fit       0.067721
  908 Fit       0.068126
  909 Fit       0.070811
  910 Fit       0.076635
  911 Fit       0.063639
  912 Fit       0.062315
  913 Fit       0.061098
  914 Fit       0.063569
  915 Fit       0.060822
  916 Fit       0.058454
  917 Fit       0.054346
  918 Fit       0.055095
  919 Fit       0.055190
  920 Fit       0.049487
  921 Fit       0.081992
  922 Fit       0.076811
  923 Fit       0.071771
  924 Fit       0.071010
  925 Fit       0.079949
  926 Fit       0.073035
  927 Fit       0.069025
  928 Fit       0.067875
  929 Fit       0.079988
  930 Fit       0.072640
  931 Fit       0.067924
  932 Fit       0.066260
  933 Fit       0.071323
  934 Fit       0.065940
  935 Fit       0.086767
  936 Fit       0.101181
  937 Fit       0.091252
  938 Fit       0.084974
  939 Fit       0.082809
  940 Fit       0.102416
  941 Fit       0.091118
  942 Fit       0.085598
  943 Fit       0.084912
  944 Fit       0.097794
  945 Fit       0.089555
  946 Fit       0.093438
  947 Fit       0.100845
  948 Fit       0.100201
  949 Fit       0.105301
  950 Fit       0.101981
  951 Fit       0.109718
  952 Fit       0.113021
  953 Fit       0.084333
  954 Fit       0.089729
  955 Fit       0.088902
  956 Fit       0.084493
  957 Fit       0.081894
  958 Fit       0.083077
  959 Fit       0.086527
  960 Fit       0.082939
  961 Fit       0.083339
  962 Fit       0.085040
  963 Fit       0.085967
  964 Fit       0.089768
  965 Fit       0.095447
  966 Fit       0.089759
  967 Fit       0.107598
  968 Fit       0.102101
  969 Fit       0.111910
  970 Fit       0.102993
  971 Fit       0.098171
  972 Fit       0.097829
  973 Fit       0.109694
  974 Fit       0.101136
  975 Fit       0.096475
  976 Fit       0.095073
  977 Fit       0.097784
  978 Fit       0.094569
  979 Fit       0.093584
  980 Fit       0.096037
  981 Fit       0.091631
  982 Fit       0.095525
  983 Fit       0.096423
  984 Fit       0.099942
  985 Fit       0.105689
  986 Fit       0.094132
  987 Fit       0.093259
  988 Fit       0.094726
  989 Fit       0.099111
  990 Fit       0.108718
  991 Fit       0.091483
  992 Fit       0.094954
  993 Fit       0.103138
  994 Fit       0.097783
  995 Fit       0.104195
  996 Fit       0.104482
  997 Fit       0.102427
  998 Fit       0.100771
  999 Fit       0.105029
 1000 Fit       0.111358
 1001 Fit       0.106548
 1002 Fit       0.100620
 1003 Fit       0.099619
 1004 Fit       0.102679
 1005 Fit       0.103857
 1006 Fit       0.109676
 1007 Fit       0.115760
 1008 Fit       0.106591
 1009 Fit       0.100208
 1010 Fit       0.106578
 1011 Fit       0.096732
 1012 Fit       0.092532
 1013 Fit       0.095844
 1014 Fit       0.106760
 1015 Fit       0.085149
 1016 Fit       0.090142
 1017 Fit       0.086957
 1018 Fit       0.093018
 1019 Fit       0.105973
 1020 Fit       0.077704
 1021 Fit       0.084380
 1022 Fit       0.092190
 1023 Fit       0.104565
 1024 Fit       0.069593
 1025 Fit       0.078444
 1026 Fit       0.085573
 1027 Fit       0.094478
 1028 Fit       0.107717
 1029 Fit       0.103490
 1030 Fit       0.083797
 1031 Fit       0.092552
 1032 Fit       0.091598
 1033 Fit       0.106596
 1034 Fit       0.092343
 1035 Fit       0.079435
 1036 Fit       0.087577
 1037 Fit       0.087619
 1038 Fit       0.076018
 1039 Fit       0.087115
 1040 Fit       0.085745
 1041 Fit       0.082013
 1042 Fit       0.067431
 1043 Fit       0.070632
 1044 Fit       0.082602
 1045 Fit       0.078231
 1046 Fit       0.116874
 1047 Fit       0.109894
 1048 Fit       0.115836
 1049 Fit       0.107083
 1050 Fit       0.106477
 1051 Fit       0.113937
 1052 Fit       0.105358
 1053 Fit       0.107984
 1054 Fit       0.119177
 1055 Fit       0.109381
 1056 Fit       0.114717
 1057 Fit       0.133808
 1058 Fit       0.117206
 1059 Fit       0.115594
 1060 Fit       0.112986
 1061 Fit       0.108809
 1062 Fit       0.110033
 1063 Fit       0.115152
 1064 Fit       0.105759
 1065 Fit       0.104888
 1066 Fit       0.105249
 1067 Fit       0.105516
 1068 Fit       0.103533
 1069 Fit       0.103796
 1070 Fit       0.102063
 1071 Fit       0.117249
 1072 Fit       0.118408
 1073 Fit       0.111038
 1074 Fit       0.116753
 1075 Fit       0.120310
 1076 Fit       0.120034
 1077 Fit       0.125572
 1078 Fit       0.121604
 1079 Fit       0.127734
 1080 Fit       0.132528
 1081 Fit       0.125124
 1082 Fit       0.122414
 1083 Fit       0.143213
 1084 Fit       0.140350
 1085 Fit       0.127567
 1086 Fit       0.122325
 1087 Fit       0.122969
 1088 Fit       0.143898
 1089 Fit       0.125636
 1090 Fit       0.118875
 1091 Fit       0.109396
 1092 Fit       0.100219
 1093 Fit       0.116901
 1094 Fit       0.108628
 1095 Fit       0.100401
 1096 Fit       0.090939
 1097 Fit       0.096587
 1098 Fit       0.102967
 1099 Fit       0.097905
 1100 Fit       0.094499
 1101 Fit       0.100358
 1102 Fit       0.098529
 1103 Fit       0.129568
 1104 Fit       0.127692
 1105 Fit       0.137192
 1106 Fit       0.125136
 1107 Fit       0.125833
 1108 Fit       0.130940
 1109 Fit       0.142828
 1110 Fit       0.125451
 1111 Fit       0.123850
 1112 Fit       0.126770
 1113 Fit       0.132701
 1114 Fit       0.125731
 1115 Fit       0.121629
 1116 Fit       0.129268
 1117 Fit       0.124691
 1118 Fit       0.128282
 1119 Fit       0.125822
 1120 Fit       0.132142
 1121 Fit       0.126663
 1122 Fit       0.126954
 1123 Fit       0.126568
 1124 Fit       0.074461
 1125 Fit       0.110131
 1126 Fit       0.112304
 1127 Fit       0.114288
 1128 Fit       0.105610
 1129 Fit       0.078973
 1130 Fit       0.073120
 1131 Fit       0.069370
 1132 Fit       0.067446
 1133 Fit       0.064835
 1134 Fit       0.064102
 1135 Fit       0.064394
 1136 Fit       0.065447
 1137 Fit       0.067926
 1138 Fit       0.073657
 1139 Fit       0.063139
 1140 Fit       0.062246
 1141 Fit       0.061645
 1142 Fit       0.074872
 1143 Fit       0.062009
 1144 Fit       0.059662
 1145 Fit       0.087801
 1146 Fit       0.095713
 1147 Fit       0.094765
 1148 Fit       0.092130
 1149 Fit       0.087326
 1150 Fit       0.082811
 1151 Fit       0.099975
 1152 Fit       0.080310
 1153 Fit       0.099425
 1154 Fit       0.105190
 1155 Fit       0.100860
 1156 Fit       0.099551
 1157 Fit       0.095456
 1158 Fit       0.092809
 1159 Fit       0.092840
 1160 Fit       0.090766
 1161 Fit       0.091827
 1162 Fit       0.094761
 1163 Fit       0.098864
 1164 Fit       0.091241
 1165 Fit       0.090744
 1166 Fit       0.102112
 1167 Fit       0.089684
 1168 Fit       0.085707
 1169 Fit       0.094624
 1170 Fit       0.081365
 1171 Fit       0.092515
 1172 Fit       0.098326
 1173 Fit       0.086546
 1174 Fit       0.083267
 1175 Fit       0.110531
 1176 Fit       0.105735
 1177 Fit       0.105441
 1178 Fit       0.112806
 1179 Fit       0.109468
 1180 Fit       0.104797
 1181 Fit       0.103544
 1182 Fit       0.106168
 1183 Fit       0.110018
 1184 Fit       0.109465
 1185 Fit       0.105935
 1186 Fit       0.107633
 1187 Fit       0.122303
 1188 Fit       0.115612
 1189 Fit       0.113465
 1190 Fit       0.113840
 1191 Fit       0.109614
 1192 Fit       0.109194
 1193 Fit       0.116351
 1194 Fit       0.105638
 1195 Fit       0.100492
 1196 Fit       0.104129
 1197 Fit       0.094834
 1198 Fit       0.095075
 1199 Fit       0.108966
 1200 Fit       0.109791
 1201 Fit       0.108206
 1202 Fit       0.106509
 1203 Fit       0.114435
 1204 Fit       0.109568
 1205 Fit       0.110342
 1206 Fit       0.116463
 1207 Fit       0.097678
 1208 Fit       0.097980
 1209 Fit       0.091546
 1210 Fit       0.086485
 1211 Fit       0.101127
 1212 Fit       0.086510
 1213 Fit       0.112329
 1214 Fit       0.113225
 1215 Fit       0.109731
 1216 Fit       0.107420
 1217 Fit       0.117800
 1218 Fit       0.131076
 1219 Fit       0.115343
 1220 Fit       0.111282
 1221 Fit       0.108180
 1222 Fit       0.109799
 1223 Fit       0.114732
 1224 Fit       0.112117
 1225 Fit       0.115348
 1226 Fit       0.116331
 1227 Fit       0.118108
 1228 Fit       0.117589
 1229 Fit       0.115290
 1230 Fit       0.110190
 1231 Fit       0.110406
 1232 Fit       0.109337
 1233 Fit       0.117516
 1234 Fit       0.111357
 1235 Fit       0.106602
 1236 Fit       0.106061
 1237 Fit       0.110963
 1238 Fit       0.111611
 1239 Fit       0.109956
 1240 Fit       0.060902
 1241 Fit       0.073140
 1242 Fit       0.049593
 1243 Fit       0.056782
 1244 Fit       0.075972
 1245 Fit       0.060084
 1246 Fit       0.051939
 1247 Fit       0.043597
 1248 Fit       0.042429
 1249 Fit       0.046742
 1250 Fit       0.058244
 1251 Fit       0.064844
 1252 Fit       0.051290
 1253 Fit       0.043840
 1254 Fit       0.040398
 1255 Fit       0.040800
 1256 Fit       0.046474
 1257 Fit       0.058964
 1258 Fit       0.068294
 1259 Fit       0.056037
 1260 Fit       0.045078
 1261 Fit       0.043841
 1262 Fit       0.053623
 1263 Fit       0.052249
 1264 Fit       0.084436
 1265 Fit       0.077646
 1266 Fit       0.075116
 1267 Fit       0.078437
 1268 Fit       0.071158
 1269 Fit       0.065455
 1270 Fit       0.063696
 1271 Fit       0.066542
 1272 Fit       0.074238
 1273 Fit       0.091123
 1274 Fit       0.080065
 1275 Fit       0.062957
 1276 Fit       0.058979
 1277 Fit       0.058575
 1278 Fit       0.062398
 1279 Fit       0.070288
 1280 Fit       0.080648
 1281 Fit       0.076484
 1282 Fit       0.069351
 1283 Fit       0.059490
 1284 Fit       0.057586
 1285 Fit       0.062496
 1286 Fit       0.069837
 1287 Fit       0.070008
 1288 Fit       0.065254
 1289 Fit       0.061045
 1290 Fit       0.094833
 1291 Fit       0.103410
 1292 Fit       0.095925
 1293 Fit       0.094831
 1294 Fit       0.098158
 1295 Fit       0.100571
 1296 Fit       0.103281
 1297 Fit       0.102040
 1298 Fit       0.100806
 1299 Fit       0.109057
 1300 Fit       0.095816
 1301 Fit       0.082675
 1302 Fit       0.085919
 1303 Fit       0.098837
 1304 Fit       0.079404
 1305 Fit       0.079480
 1306 Fit       0.072621
 1307 Fit       0.072441
 1308 Fit       0.078444
 1309 Fit       0.070557
 1310 Fit       0.067792
 1311 Fit       0.067710
 1312 Fit       0.070250
 1313 Fit       0.075881
 1314 Fit       0.084995
 1315 Fit       0.065542
 1316 Fit       0.065379
 1317 Fit       0.067079
 1318 Fit       0.071118
 1319 Fit       0.078167
 1320 Fit       0.062770
 1321 Fit       0.060154
 1322 Fit       0.058635
 1323 Fit       0.057375
 1324 Fit       0.055088
 1325 Fit       0.059786
 1326 Fit       0.057046
 1327 Fit       0.054578
 1328 Fit       0.050379
 1329 Fit       0.052299
 1330 Fit       0.046903
 1331 Fit       0.075003
 1332 Fit       0.070143
 1333 Fit       0.081732
 1334 Fit       0.073242
 1335 Fit       0.068319
 1336 Fit       0.066099
 1337 Fit       0.078997
 1338 Fit       0.071547
 1339 Fit       0.066810
 1340 Fit       0.064432
 1341 Fit       0.076889
 1342 Fit       0.069559
 1343 Fit       0.064972
 1344 Fit       0.068700
 1345 Fit       0.083884
 1346 Fit       0.087181
 1347 Fit       0.081465
 1348 Fit       0.079557
 1349 Fit       0.100789
 1350 Fit       0.089081
 1351 Fit       0.082583
 1352 Fit       0.080021
 1353 Fit       0.092603
 1354 Fit       0.084909
 1355 Fit       0.082488
 1356 Fit       0.096462
 1357 Fit       0.087704
 1358 Fit       0.097124
 1359 Fit       0.101946
 1360 Fit       0.099469
 1361 Fit       0.102901
 1362 Fit       0.105947
 1363 Fit       0.080940
 1364 Fit       0.085851
 1365 Fit       0.084948
 1366 Fit       0.080984
 1367 Fit       0.078516
 1368 Fit       0.079495
 1369 Fit       0.082859
 1370 Fit       0.093820
 1371 Fit       0.079016
 1372 Fit       0.078867
 1373 Fit       0.080122
 1374 Fit       0.081828
 1375 Fit       0.085720
 1376 Fit       0.090775
 1377 Fit       0.087341
 1378 Fit       0.094763
 1379 Fit       0.103168
 1380 Fit       0.098084
 1381 Fit       0.107330
 1382 Fit       0.098720
 1383 Fit       0.093987
 1384 Fit       0.093744
 1385 Fit       0.108633
 1386 Fit       0.098595
 1387 Fit       0.092939
 1388 Fit       0.090667
 1389 Fit       0.091760
 1390 Fit       0.094150
 1391 Fit       0.090358
 1392 Fit       0.089159
 1393 Fit       0.091238
 1394 Fit       0.087449
 1395 Fit       0.087946
 1396 Fit       0.092326
 1397 Fit       0.094547
 1398 Fit       0.099155
 1399 Fit       0.089015
 1400 Fit       0.089417
 1401 Fit       0.092042
 1402 Fit       0.097152
 1403 Fit       0.087630
 1404 Fit       0.087568
 1405 Fit       0.089199
 1406 Fit       0.093637
 1407 Fit       0.103465
 1408 Fit       0.086110
 1409 Fit       0.089512
 1410 Fit       0.096931
 1411 Fit       0.091768
 1412 Fit       0.099518
 1413 Fit       0.100227
 1414 Fit       0.097682
 1415 Fit       0.096122
 1416 Fit       0.100047
 1417 Fit       0.105835
 1418 Fit       0.102671
 1419 Fit       0.095188
 1420 Fit       0.094595
 1421 Fit       0.097848
 1422 Fit       0.095228
 1423 Fit       0.096691
 1424 Fit       0.105914
 1425 Fit       0.103178
 1426 Fit       0.097492
 1427 Fit       0.102966
 1428 Fit       0.094791
 1429 Fit       0.090714
 1430 Fit       0.093294
 1431 Fit       0.102551
 1432 Fit       0.084914
 1433 Fit       0.089270
 1434 Fit       0.078850
 1435 Fit       0.084415
 1436 Fit       0.092788
 1437 Fit       0.066306
 1438 Fit       0.074950
 1439 Fit       0.081069
 1440 Fit       0.088532
 1441 Fit       0.099746
 1442 Fit       0.067828
 1443 Fit       0.074862
 1444 Fit       0.081244
 1445 Fit       0.089295
 1446 Fit       0.100710
 1447 Fit       0.097482
 1448 Fit       0.080376
 1449 Fit       0.088092
 1450 Fit       0.087600
 1451 Fit       0.098592
 1452 Fit       0.087834
 1453 Fit       0.078092
 1454 Fit       0.083823
 1455 Fit       0.086014
 1456 Fit       0.072645
 1457 Fit       0.085935
 1458 Fit       0.082864
 1459 Fit       0.081631
 1460 Fit       0.077886
 1461 Fit       0.066909
 1462 Fit       0.068926
 1463 Fit       0.078631
 1464 Fit       0.075202
 1465 Fit       0.112583
 1466 Fit       0.105982
 1467 Fit       0.110704
 1468 Fit       0.102945
 1469 Fit       0.102099
 1470 Fit       0.108491
 1471 Fit       0.099917
 1472 Fit       0.103960
 1473 Fit       0.115693
 1474 Fit       0.101116
 1475 Fit       0.104381
 1476 Fit       0.115653
 1477 Fit       0.115882
 1478 Fit       0.108135
 1479 Fit       0.107232
 1480 Fit       0.104450
 1481 Fit       0.101364
 1482 Fit       0.102407
 1483 Fit       0.106107
 1484 Fit       0.099671
 1485 Fit       0.099054
 1486 Fit       0.099240
 1487 Fit       0.097809
 1488 Fit       0.098068
 1489 Fit       0.096905
 1490 Fit       0.112257
 1491 Fit       0.112763
 1492 Fit       0.110825
 1493 Fit       0.116722
 1494 Fit       0.113664
 1495 Fit       0.121636
 1496 Fit       0.116035
 1497 Fit       0.114120
 1498 Fit       0.129037
 1499 Fit       0.127961
 1500 Fit       0.118704
 1501 Fit       0.114615
 1502 Fit       0.114885
 1503 Fit       0.133990
 1504 Fit       0.119999
 1505 Fit       0.114127
 1506 Fit       0.117562
 1507 Fit       0.107209
 1508 Fit       0.097208
 1509 Fit       0.090169
 1510 Fit       0.099602
 1511 Fit       0.092999
 1512 Fit       0.084528
 1513 Fit       0.089778
 1514 Fit       0.094598
 1515 Fit       0.090677
 1516 Fit       0.088276
 1517 Fit       0.092984
 1518 Fit       0.091304
 1519 Fit       0.122059
 1520 Fit       0.119567
 1521 Fit       0.128868
 1522 Fit       0.116929
 1523 Fit       0.117623
 1524 Fit       0.122993
 1525 Fit       0.135531
 1526 Fit       0.116604
 1527 Fit       0.116077
 1528 Fit       0.119376
 1529 Fit       0.126684
 1530 Fit       0.116505
 1531 Fit       0.114854
 1532 Fit       0.116812
 1533 Fit       0.121029
 1534 Fit       0.120071
 1535 Fit       0.116309
 1536 Fit       0.118040
 1537 Fit       0.117074
 1538 Fit       0.118799
 1539 Fit       0.117324
 1540 Fit       0.123451
 1541 Fit       0.118178
 1542 Fit       0.118066
 1543 Fit       0.118964
 -----------------------------------------------------------------
 Leave Link  602 at Sat Feb 17 21:07:55 2018, MaxMem=   33554432 cpu:       1.2

 Test job not archived.
 1\1\GINC-NODE019\SP\RHF\6-31G(d)\C9H22N5O3S1(1+)\WULSDORT\17-Feb-2018\
 0\\#HF/6-31G* Geom=AllCheck Guess=Read Pop=(MK,ReadRadii) Integral=(Gr
 id=UltraFine) iop(6/33=2)\\Optimization for frag50-conf1\\1,1\C,0,0.22
 76456397,2.2470387263,-2.0314638352\C,0,-1.3724091115,8.1413661816,-1.
 3955933938\C,0,-0.2384010908,-0.037882164,-1.3526262863\C,0,-2.1481513
 381,1.4561273533,-1.7514673659\C,0,-2.9266866068,4.0836340229,-5.42397
 74304\C,0,0.9725292069,5.2587841812,-0.8222725834\C,0,0.8704781675,4.6
 975479836,-2.2630116162\C,0,0.5647952424,6.7330851935,-0.7000619372\C,
 0,-0.2708356465,3.6706418108,-2.4275724531\N,0,-2.4518412295,8.2397456
 292,-2.183742901\N,0,-0.7884113447,6.9528907165,-1.2390583501\N,0,-0.8
 079333732,3.5648037106,-3.8081169744\N,0,-0.7000465323,1.3085126953,-1
 .6930219112\N,0,-0.8916476093,9.2305976773,-0.7741390735\O,0,1.4350094
 929,2.0248808413,-2.0393393081\O,0,-0.8790741658,5.7735101013,-5.23093
 55173\O,0,-2.3793042667,5.4568443879,-3.2068172176\S,0,-1.6900491553,4
 .8826776839,-4.3986880482\H,0,-0.6632845467,-0.3408057713,-0.389094717
 6\H,0,0.8480201563,-0.0340727594,-1.2927277778\H,0,-0.5594095815,-0.75
 61789456,-2.1172418829\H,0,-2.5660420017,0.8044587623,-2.5298652095\H,
 0,-2.4464228928,2.4792786316,-1.969901232\H,0,-2.5883920366,1.16237978
 49,-0.7911494328\H,0,-3.5423766144,4.8752573744,-5.8573627735\H,0,-2.4
 148969888,3.5331875198,-6.216272537\H,0,-3.5230812087,3.4149186631,-4.
 8029182179\H,0,0.3664395287,4.6605262259,-0.1298924664\H,0,2.000577535
 3,5.1844338987,-0.4559301118\H,0,0.730098389,5.5150522197,-2.97925561\
 H,0,1.8011308391,4.1934737737,-2.532836664\H,0,0.5894389115,7.02904160
 64,0.3562976096\H,0,1.2740588221,7.3648234507,-1.2510281785\H,0,-1.118
 9591081,3.9453246086,-1.7979915847\H,0,-2.7336680417,7.4348754465,-2.7
 390306673\H,0,-3.03786936,9.0612667711,-2.1801382144\H,0,-1.2278403098
 ,6.1983112335,-1.7646907422\H,0,-0.0830023925,3.3163356057,-4.48406484
 93\H,0,-1.2514988125,10.1520596629,-0.9745482007\H,0,-0.1454422504,9.1
 599699114,-0.0990381671\\Version=AM64L-G09RevC.01\State=1-A\HF=-1247.7
 259672\RMSD=7.635e-09\Dipole=-1.9488827,3.3371668,1.0878387\Quadrupole
 =-17.7500215,28.3265458,-10.5765243,2.1346909,9.1703211,18.0482984\PG=
 C01 [X(C9H22N5O3S1)]\\@


 THE WORLD IS NOT A HAMBURGER - YOU CAN'T HAVE IT YOUR WAY.
 Job cpu time:  0 days  0 hours  6 minutes 36.5 seconds.
 File lengths (MBytes):  RWF=     57 Int=      0 D2E=      0 Chk=      8 Scr=      1
 Normal termination of Gaussian 09 at Sat Feb 17 21:07:55 2018.
