 Entering Gaussian System, Link 0=g09
 Initial command:
 /home/fb_chem/chemsoft/lx24-amd64/Gaussian_09_C.01_NBO_3.1_64_istanbul-64/g09/l1.exe /local/2397308.1.parallel/Gau-2199.inp -scrdir=/local/2397308.1.parallel/
 Entering Link 1 = /home/fb_chem/chemsoft/lx24-amd64/Gaussian_09_C.01_NBO_3.1_64_istanbul-64/g09/l1.exe PID=      2200.
  
 Copyright (c) 1988,1990,1992,1993,1995,1998,2003,2009,2011,
            Gaussian, Inc.  All Rights Reserved.
  
 This is part of the Gaussian(R) 09 program.  It is based on
 the Gaussian(R) 03 system (copyright 2003, Gaussian, Inc.),
 the Gaussian(R) 98 system (copyright 1998, Gaussian, Inc.),
 the Gaussian(R) 94 system (copyright 1995, Gaussian, Inc.),
 the Gaussian 92(TM) system (copyright 1992, Gaussian, Inc.),
 the Gaussian 90(TM) system (copyright 1990, Gaussian, Inc.),
 the Gaussian 88(TM) system (copyright 1988, Gaussian, Inc.),
 the Gaussian 86(TM) system (copyright 1986, Carnegie Mellon
 University), and the Gaussian 82(TM) system (copyright 1983,
 Carnegie Mellon University). Gaussian is a federally registered
 trademark of Gaussian, Inc.
  
 This software contains proprietary and confidential information,
 including trade secrets, belonging to Gaussian, Inc.
  
 This software is provided under written license and may be
 used, copied, transmitted, or stored only in accord with that
 written license.
  
 The following legend is applicable only to US Government
 contracts under FAR:
  
                    RESTRICTED RIGHTS LEGEND
  
 Use, reproduction and disclosure by the US Government is
 subject to restrictions as set forth in subparagraphs (a)
 and (c) of the Commercial Computer Software - Restricted
 Rights clause in FAR 52.227-19.
  
 Gaussian, Inc.
 340 Quinnipiac St., Bldg. 40, Wallingford CT 06492
  
  
 ---------------------------------------------------------------
 Warning -- This program may not be used in any manner that
 competes with the business of Gaussian, Inc. or will provide
 assistance to any competitor of Gaussian, Inc.  The licensee
 of this program is prohibited from giving any competitor of
 Gaussian, Inc. access to this program.  By using this program,
 the user acknowledges that Gaussian, Inc. is engaged in the
 business of creating and licensing software in the field of
 computational chemistry and represents and warrants to the
 licensee that it is not a competitor of Gaussian, Inc. and that
 it will not use this program in any manner prohibited above.
 ---------------------------------------------------------------
  

 Cite this work as:
 Gaussian 09, Revision C.01,
 M. J. Frisch, G. W. Trucks, H. B. Schlegel, G. E. Scuseria, 
 M. A. Robb, J. R. Cheeseman, G. Scalmani, V. Barone, B. Mennucci, 
 G. A. Petersson, H. Nakatsuji, M. Caricato, X. Li, H. P. Hratchian, 
 A. F. Izmaylov, J. Bloino, G. Zheng, J. L. Sonnenberg, M. Hada, 
 M. Ehara, K. Toyota, R. Fukuda, J. Hasegawa, M. Ishida, T. Nakajima, 
 Y. Honda, O. Kitao, H. Nakai, T. Vreven, J. A. Montgomery, Jr., 
 J. E. Peralta, F. Ogliaro, M. Bearpark, J. J. Heyd, E. Brothers, 
 K. N. Kudin, V. N. Staroverov, T. Keith, R. Kobayashi, J. Normand, 
 K. Raghavachari, A. Rendell, J. C. Burant, S. S. Iyengar, J. Tomasi, 
 M. Cossi, N. Rega, J. M. Millam, M. Klene, J. E. Knox, J. B. Cross, 
 V. Bakken, C. Adamo, J. Jaramillo, R. Gomperts, R. E. Stratmann, 
 O. Yazyev, A. J. Austin, R. Cammi, C. Pomelli, J. W. Ochterski, 
 R. L. Martin, K. Morokuma, V. G. Zakrzewski, G. A. Voth, 
 P. Salvador, J. J. Dannenberg, S. Dapprich, A. D. Daniels, 
 O. Farkas, J. B. Foresman, J. V. Ortiz, J. Cioslowski, 
 and D. J. Fox, Gaussian, Inc., Wallingford CT, 2010.
 
 ******************************************
 Gaussian 09:  AM64L-G09RevC.01 23-Sep-2011
                16-Feb-2018 
 ******************************************
 %nprocs=4
 Will use up to    4 processors via shared memory.
 %chk=frag4-conf2.chk
 ---------------------------------------------------------
 #B3LYP/6-31G* Integral=(Grid=UltraFine) freq Opt pop=none
 ---------------------------------------------------------
 1/14=-1,18=20,19=15,26=3,38=1/1,3;
 2/9=110,12=2,17=6,18=5,40=1/2;
 3/5=1,6=6,7=1,11=2,16=1,25=1,30=1,71=1,74=-5,75=-5/1,2,3;
 4//1;
 5/5=2,38=5/2;
 7//1,2,3,16;
 1/14=-1,18=20,19=15/3(2);
 2/9=110/2;
 99//99;
 2/9=110/2;
 3/5=1,6=6,7=1,11=2,16=1,25=1,30=1,71=1,74=-5,75=-5/1,2,3;
 4/5=5,16=3/1;
 5/5=2,38=5/2;
 7//1,2,3,16;
 1/14=-1,18=20,19=15/3(-5);
 2/9=110/2;
 99/9=1/99;
 ----------------------------
 Optimization for frag4-conf2
 ----------------------------
 Charge =  0 Multiplicity = 1
 Symbolic Z-Matrix:
 C                    -0.00707  -0.82061  -0.55125 
 C                    -0.65031  -3.13846   1.79175 
 C                     0.96538  -3.73999  -1.46284 
 C                     1.77374  -2.56423  -0.92252 
 C                     0.23036  -4.24852  -0.23385 
 C                     0.83823  -1.93249   0.11163 
 C                    -0.68787  -1.89246   2.63842 
 C                    -2.19425  -0.29718  -1.58308 
 N                     0.04736  -3.07433   0.60742 
 N                    -1.2861   -1.18686  -0.9061 
 O                     0.45935   0.28693  -0.82478 
 O                    -1.22339  -4.16938   2.15253 
 H                     0.24865  -3.38762  -2.21389 
 H                     1.59022  -4.50883  -1.9257 
 H                     2.67441  -2.94287  -0.42365 
 H                     2.08545  -1.87869  -1.71624 
 H                    -0.73462  -4.70677  -0.47042 
 H                     0.83549  -4.97148   0.32465 
 H                     1.39562  -1.47717   0.93638 
 H                    -1.09827  -1.05398   2.07173 
 H                     0.31724  -1.64996   2.99246 
 H                    -1.32895  -2.06451   3.50819 
 H                    -2.19241   0.67879  -1.0905 
 H                    -3.19638  -0.73058  -1.55426 
 H                    -1.86654  -0.18274  -2.61954 
 H                    -1.58576  -2.13504  -0.68841 
 

 GradGradGradGradGradGradGradGradGradGradGradGradGradGradGradGradGradGrad
 Berny optimization.
 Initialization pass.
                           ----------------------------
                           !    Initial Parameters    !
                           ! (Angstroms and Degrees)  !
 --------------------------                            --------------------------
 ! Name  Definition              Value          Derivative Info.                !
 --------------------------------------------------------------------------------
 ! R1    R(1,6)                  1.546          estimate D2E/DX2                !
 ! R2    R(1,10)                 1.3769         estimate D2E/DX2                !
 ! R3    R(1,11)                 1.2325         estimate D2E/DX2                !
 ! R4    R(2,7)                  1.5069         estimate D2E/DX2                !
 ! R5    R(2,9)                  1.376          estimate D2E/DX2                !
 ! R6    R(2,12)                 1.2334         estimate D2E/DX2                !
 ! R7    R(3,4)                  1.5257         estimate D2E/DX2                !
 ! R8    R(3,5)                  1.5196         estimate D2E/DX2                !
 ! R9    R(3,13)                 1.0963         estimate D2E/DX2                !
 ! R10   R(3,14)                 1.0935         estimate D2E/DX2                !
 ! R11   R(4,6)                  1.5309         estimate D2E/DX2                !
 ! R12   R(4,15)                 1.097          estimate D2E/DX2                !
 ! R13   R(4,16)                 1.0941         estimate D2E/DX2                !
 ! R14   R(5,9)                  1.456          estimate D2E/DX2                !
 ! R15   R(5,17)                 1.0942         estimate D2E/DX2                !
 ! R16   R(5,18)                 1.0958         estimate D2E/DX2                !
 ! R17   R(6,9)                  1.4748         estimate D2E/DX2                !
 ! R18   R(6,19)                 1.0946         estimate D2E/DX2                !
 ! R19   R(7,20)                 1.0921         estimate D2E/DX2                !
 ! R20   R(7,21)                 1.0929         estimate D2E/DX2                !
 ! R21   R(7,22)                 1.0941         estimate D2E/DX2                !
 ! R22   R(8,10)                 1.4403         estimate D2E/DX2                !
 ! R23   R(8,23)                 1.0932         estimate D2E/DX2                !
 ! R24   R(8,24)                 1.0922         estimate D2E/DX2                !
 ! R25   R(8,25)                 1.093          estimate D2E/DX2                !
 ! R26   R(10,26)                1.018          estimate D2E/DX2                !
 ! A1    A(6,1,10)             115.2823         estimate D2E/DX2                !
 ! A2    A(6,1,11)             122.3119         estimate D2E/DX2                !
 ! A3    A(10,1,11)            122.232          estimate D2E/DX2                !
 ! A4    A(7,2,9)              117.2379         estimate D2E/DX2                !
 ! A5    A(7,2,12)             121.0089         estimate D2E/DX2                !
 ! A6    A(9,2,12)             121.7533         estimate D2E/DX2                !
 ! A7    A(4,3,5)              103.1639         estimate D2E/DX2                !
 ! A8    A(4,3,13)             109.9553         estimate D2E/DX2                !
 ! A9    A(4,3,14)             112.8911         estimate D2E/DX2                !
 ! A10   A(5,3,13)             110.205          estimate D2E/DX2                !
 ! A11   A(5,3,14)             112.5461         estimate D2E/DX2                !
 ! A12   A(13,3,14)            108.0333         estimate D2E/DX2                !
 ! A13   A(3,4,6)              103.5014         estimate D2E/DX2                !
 ! A14   A(3,4,15)             109.2719         estimate D2E/DX2                !
 ! A15   A(3,4,16)             112.1411         estimate D2E/DX2                !
 ! A16   A(6,4,15)             109.6904         estimate D2E/DX2                !
 ! A17   A(6,4,16)             113.9276         estimate D2E/DX2                !
 ! A18   A(15,4,16)            108.1945         estimate D2E/DX2                !
 ! A19   A(3,5,9)              104.9641         estimate D2E/DX2                !
 ! A20   A(3,5,17)             113.071          estimate D2E/DX2                !
 ! A21   A(3,5,18)             111.461          estimate D2E/DX2                !
 ! A22   A(9,5,17)             110.5997         estimate D2E/DX2                !
 ! A23   A(9,5,18)             107.8778         estimate D2E/DX2                !
 ! A24   A(17,5,18)            108.7183         estimate D2E/DX2                !
 ! A25   A(1,6,4)              109.9525         estimate D2E/DX2                !
 ! A26   A(1,6,9)              114.0637         estimate D2E/DX2                !
 ! A27   A(1,6,19)             107.5962         estimate D2E/DX2                !
 ! A28   A(4,6,9)              103.6086         estimate D2E/DX2                !
 ! A29   A(4,6,19)             111.6818         estimate D2E/DX2                !
 ! A30   A(9,6,19)             109.9878         estimate D2E/DX2                !
 ! A31   A(2,7,20)             110.6508         estimate D2E/DX2                !
 ! A32   A(2,7,21)             110.0331         estimate D2E/DX2                !
 ! A33   A(2,7,22)             109.3438         estimate D2E/DX2                !
 ! A34   A(20,7,21)            110.0806         estimate D2E/DX2                !
 ! A35   A(20,7,22)            108.2436         estimate D2E/DX2                !
 ! A36   A(21,7,22)            108.4357         estimate D2E/DX2                !
 ! A37   A(10,8,23)            109.7918         estimate D2E/DX2                !
 ! A38   A(10,8,24)            108.7237         estimate D2E/DX2                !
 ! A39   A(10,8,25)            108.7425         estimate D2E/DX2                !
 ! A40   A(23,8,24)            110.1148         estimate D2E/DX2                !
 ! A41   A(23,8,25)            109.4678         estimate D2E/DX2                !
 ! A42   A(24,8,25)            109.9772         estimate D2E/DX2                !
 ! A43   A(2,9,5)              121.563          estimate D2E/DX2                !
 ! A44   A(2,9,6)              126.6767         estimate D2E/DX2                !
 ! A45   A(5,9,6)              111.2684         estimate D2E/DX2                !
 ! A46   A(1,10,8)             122.8548         estimate D2E/DX2                !
 ! A47   A(1,10,26)            117.7807         estimate D2E/DX2                !
 ! A48   A(8,10,26)            119.357          estimate D2E/DX2                !
 ! D1    D(10,1,6,4)            99.3469         estimate D2E/DX2                !
 ! D2    D(10,1,6,9)           -16.5182         estimate D2E/DX2                !
 ! D3    D(10,1,6,19)         -138.8184         estimate D2E/DX2                !
 ! D4    D(11,1,6,4)           -75.9582         estimate D2E/DX2                !
 ! D5    D(11,1,6,9)           168.1767         estimate D2E/DX2                !
 ! D6    D(11,1,6,19)           45.8765         estimate D2E/DX2                !
 ! D7    D(6,1,10,8)          -177.3894         estimate D2E/DX2                !
 ! D8    D(6,1,10,26)            1.602          estimate D2E/DX2                !
 ! D9    D(11,1,10,8)           -2.0801         estimate D2E/DX2                !
 ! D10   D(11,1,10,26)         176.9112         estimate D2E/DX2                !
 ! D11   D(9,2,7,20)            56.9879         estimate D2E/DX2                !
 ! D12   D(9,2,7,21)           -64.8804         estimate D2E/DX2                !
 ! D13   D(9,2,7,22)           176.1236         estimate D2E/DX2                !
 ! D14   D(12,2,7,20)         -123.0349         estimate D2E/DX2                !
 ! D15   D(12,2,7,21)          115.0968         estimate D2E/DX2                !
 ! D16   D(12,2,7,22)           -3.8992         estimate D2E/DX2                !
 ! D17   D(7,2,9,5)            175.2852         estimate D2E/DX2                !
 ! D18   D(7,2,9,6)              4.0536         estimate D2E/DX2                !
 ! D19   D(12,2,9,5)            -4.6918         estimate D2E/DX2                !
 ! D20   D(12,2,9,6)          -175.9234         estimate D2E/DX2                !
 ! D21   D(5,3,4,6)            -36.9191         estimate D2E/DX2                !
 ! D22   D(5,3,4,15)            79.891          estimate D2E/DX2                !
 ! D23   D(5,3,4,16)          -160.1499         estimate D2E/DX2                !
 ! D24   D(13,3,4,6)            80.6151         estimate D2E/DX2                !
 ! D25   D(13,3,4,15)         -162.5748         estimate D2E/DX2                !
 ! D26   D(13,3,4,16)          -42.6157         estimate D2E/DX2                !
 ! D27   D(14,3,4,6)          -158.6674         estimate D2E/DX2                !
 ! D28   D(14,3,4,15)          -41.8573         estimate D2E/DX2                !
 ! D29   D(14,3,4,16)           78.1018         estimate D2E/DX2                !
 ! D30   D(4,3,5,9)             29.5539         estimate D2E/DX2                !
 ! D31   D(4,3,5,17)           150.1972         estimate D2E/DX2                !
 ! D32   D(4,3,5,18)           -86.9661         estimate D2E/DX2                !
 ! D33   D(13,3,5,9)           -87.8045         estimate D2E/DX2                !
 ! D34   D(13,3,5,17)           32.8387         estimate D2E/DX2                !
 ! D35   D(13,3,5,18)          155.6754         estimate D2E/DX2                !
 ! D36   D(14,3,5,9)           151.5346         estimate D2E/DX2                !
 ! D37   D(14,3,5,17)          -87.8222         estimate D2E/DX2                !
 ! D38   D(14,3,5,18)           35.0146         estimate D2E/DX2                !
 ! D39   D(3,4,6,1)            -92.0713         estimate D2E/DX2                !
 ! D40   D(3,4,6,9)             30.2187         estimate D2E/DX2                !
 ! D41   D(3,4,6,19)           148.5597         estimate D2E/DX2                !
 ! D42   D(15,4,6,1)           151.4134         estimate D2E/DX2                !
 ! D43   D(15,4,6,9)           -86.2966         estimate D2E/DX2                !
 ! D44   D(15,4,6,19)           32.0444         estimate D2E/DX2                !
 ! D45   D(16,4,6,1)            29.9734         estimate D2E/DX2                !
 ! D46   D(16,4,6,9)           152.2634         estimate D2E/DX2                !
 ! D47   D(16,4,6,19)          -89.3956         estimate D2E/DX2                !
 ! D48   D(3,5,9,2)            176.6224         estimate D2E/DX2                !
 ! D49   D(3,5,9,6)            -10.9163         estimate D2E/DX2                !
 ! D50   D(17,5,9,2)            54.3601         estimate D2E/DX2                !
 ! D51   D(17,5,9,6)          -133.1786         estimate D2E/DX2                !
 ! D52   D(18,5,9,2)           -64.4215         estimate D2E/DX2                !
 ! D53   D(18,5,9,6)           108.0398         estimate D2E/DX2                !
 ! D54   D(1,6,9,2)            -80.7105         estimate D2E/DX2                !
 ! D55   D(1,6,9,5)            107.3017         estimate D2E/DX2                !
 ! D56   D(4,6,9,2)            159.7765         estimate D2E/DX2                !
 ! D57   D(4,6,9,5)            -12.2113         estimate D2E/DX2                !
 ! D58   D(19,6,9,2)            40.2689         estimate D2E/DX2                !
 ! D59   D(19,6,9,5)          -131.719          estimate D2E/DX2                !
 ! D60   D(23,8,10,1)          -47.0241         estimate D2E/DX2                !
 ! D61   D(23,8,10,26)         133.9998         estimate D2E/DX2                !
 ! D62   D(24,8,10,1)         -167.5474         estimate D2E/DX2                !
 ! D63   D(24,8,10,26)          13.4765         estimate D2E/DX2                !
 ! D64   D(25,8,10,1)           72.7206         estimate D2E/DX2                !
 ! D65   D(25,8,10,26)        -106.2555         estimate D2E/DX2                !
 --------------------------------------------------------------------------------
 Trust Radius=3.00D-01 FncErr=1.00D-07 GrdErr=1.00D-06
 Number of steps in this run=    149 maximum allowed number of steps=    156.
 GradGradGradGradGradGradGradGradGradGradGradGradGradGradGradGradGradGrad

                          Input orientation:                          
 ---------------------------------------------------------------------
 Center     Atomic      Atomic             Coordinates (Angstroms)
 Number     Number       Type             X           Y           Z
 ---------------------------------------------------------------------
      1          6           0       -0.007066   -0.820614   -0.551252
      2          6           0       -0.650306   -3.138459    1.791754
      3          6           0        0.965385   -3.739993   -1.462841
      4          6           0        1.773735   -2.564228   -0.922525
      5          6           0        0.230363   -4.248516   -0.233846
      6          6           0        0.838229   -1.932493    0.111630
      7          6           0       -0.687872   -1.892464    2.638421
      8          6           0       -2.194252   -0.297177   -1.583077
      9          7           0        0.047363   -3.074331    0.607416
     10          7           0       -1.286097   -1.186858   -0.906102
     11          8           0        0.459346    0.286935   -0.824781
     12          8           0       -1.223387   -4.169375    2.152528
     13          1           0        0.248649   -3.387619   -2.213894
     14          1           0        1.590223   -4.508826   -1.925700
     15          1           0        2.674411   -2.942868   -0.423650
     16          1           0        2.085452   -1.878694   -1.716238
     17          1           0       -0.734624   -4.706769   -0.470423
     18          1           0        0.835494   -4.971482    0.324650
     19          1           0        1.395618   -1.477168    0.936383
     20          1           0       -1.098266   -1.053979    2.071735
     21          1           0        0.317243   -1.649955    2.992460
     22          1           0       -1.328945   -2.064513    3.508193
     23          1           0       -2.192415    0.678788   -1.090502
     24          1           0       -3.196376   -0.730576   -1.554261
     25          1           0       -1.866542   -0.182738   -2.619543
     26          1           0       -1.585765   -2.135035   -0.688411
 ---------------------------------------------------------------------
                    Distance matrix (angstroms):
                    1          2          3          4          5
     1  C    0.000000
     2  C    3.357952   0.000000
     3  C    3.209272   3.683027   0.000000
     4  C    2.519779   3.684159   1.525712   0.000000
     5  C    3.450743   2.472015   1.519632   2.386022   0.000000
     6  C    1.546030   2.548119   2.400455   1.530927   2.419260
     7  C    3.433128   1.506904   4.792387   4.380766   3.826755
     8  C    2.474355   4.673985   4.674478   4.617442   4.828278
     9  N    2.534702   1.376049   2.360473   2.362475   1.455995
    10  N    1.376944   3.389898   3.449294   3.355592   3.482145
    11  O    1.232486   4.450944   4.108448   3.141067   4.579514
    12  O    4.472590   1.233437   4.248056   4.584233   2.795431
    13  H    3.069085   4.112836   1.096339   2.161364   2.159183
    14  H    4.247746   4.551630   1.093510   2.195791   2.186172
    15  H    3.422070   4.000002   2.153160   1.097024   2.777429
    16  H    2.618273   4.623569   2.187052   1.094123   3.354832
    17  H    3.954501   2.753933   2.193076   3.329677   1.094150
    18  H    4.325138   2.778484   2.174525   2.868904   1.095801
    19  H    2.147473   2.770804   3.325922   2.186369   3.226085
    20  H    2.850480   2.150376   4.895565   4.415296   4.157647
    21  H    3.653885   2.143243   4.963674   4.276023   4.143564
    22  H    4.446768   2.135433   5.725588   5.432090   4.604798
    23  H    2.704579   5.025622   5.443892   5.125985   5.557161
    24  H    3.344523   4.845223   5.136652   5.335108   5.085463
    25  H    2.853483   5.447482   4.691677   4.669367   5.159371
    26  H    2.058836   2.834283   3.111912   3.394887   2.823429
                    6          7          8          9         10
     6  C    0.000000
     7  C    2.952162   0.000000
     8  C    3.839561   4.757643   0.000000
     9  N    1.474812   2.462187   4.187563   0.000000
    10  N    2.470731   3.663250   1.440337   2.762500   0.000000
    11  O    2.438499   4.249665   2.820954   3.676823   2.285880
    12  O    3.663219   2.388974   5.467288   2.280635   4.272536
    13  H    2.805897   5.163092   3.989552   2.845778   2.984814
    14  H    3.369525   5.732911   5.672533   3.294673   4.510906
    15  H    2.163087   4.667395   5.661080   2.825201   4.359124
    16  H    2.213495   5.162806   4.564514   3.314019   3.535859
    17  H    3.241799   4.193735   4.776298   2.106678   3.589390
    18  H    3.046447   4.141803   5.887946   2.073714   4.509909
    19  H    1.094633   2.722193   4.541720   2.115879   3.266593
    20  H    2.892026   1.092069   3.889933   2.745636   2.986712
    21  H    2.941163   1.092891   5.391953   2.791079   4.240749
    22  H    4.031218   1.094111   5.458320   3.365778   4.500902
    23  H    4.177166   4.772825   1.093224   4.688863   2.082318
    24  H    4.527454   5.022067   1.092208   4.548393   2.068204
    25  H    4.223356   5.653194   1.093047   4.736835   2.069070
    26  H    2.560632   3.454398   2.132699   2.286602   1.017954
                   11         12         13         14         15
    11  O    0.000000
    12  O    5.617353   0.000000
    13  H    3.934002   4.673722   0.000000
    14  H    5.048784   4.966243   1.772000   0.000000
    15  H    3.936883   4.830512   3.047474   2.425663   0.000000
    16  H    2.851116   5.582382   2.428654   2.684533   1.774859
    17  H    5.146670   2.721681   2.397223   2.749896   3.838627
    18  H    5.395704   2.867666   3.049134   2.418210   2.838458
    19  H    2.662773   3.947933   3.858705   4.173768   2.373453
    20  H    3.551620   3.118955   5.062279   5.928189   4.901830
    21  H    4.282880   3.070262   5.489108   5.829401   4.347145
    22  H    5.244231   2.505876   6.081257   6.635013   5.679591
    23  H    2.693695   5.912778   4.874060   6.474353   6.103039
    24  H    3.864165   5.427551   4.400362   6.109392   6.374846
    25  H    2.975151   6.251366   3.861327   5.580832   5.749828
    26  H    3.172856   3.512946   2.694650   4.153633   4.344168
                   16         17         18         19         20
    16  H    0.000000
    17  H    4.183646   0.000000
    18  H    3.910621   1.779743   0.000000
    19  H    2.770107   4.116717   3.591405   0.000000
    20  H    5.016468   4.465163   4.705164   2.772647   0.000000
    21  H    5.034950   4.737309   4.291659   2.328132   1.790696
    22  H    6.243982   4.812911   4.823921   3.792417   1.771385
    23  H    5.023187   5.613723   6.564788   4.650848   3.768207
    24  H    5.407598   4.800525   6.145858   5.277037   4.201726
    25  H    4.394370   5.134863   6.237094   4.996183   4.832948
    26  H    3.820991   2.717679   3.864482   3.458524   3.004121
                   21         22         23         24         25
    21  H    0.000000
    22  H    1.774197   0.000000
    23  H    5.328416   5.423954   0.000000
    24  H    5.819231   5.558339   1.791457   0.000000
    25  H    6.198082   6.432669   1.785045   1.789807   0.000000
    26  H    4.171997   4.205046   2.906424   2.305704   2.760357
                   26
    26  H    0.000000
 Stoichiometry    C8H14N2O2
 Framework group  C1[X(C8H14N2O2)]
 Deg. of freedom    72
 Full point group                 C1      NOp   1
 Largest Abelian subgroup         C1      NOp   1
 Largest concise Abelian subgroup C1      NOp   1
                         Standard orientation:                         
 ---------------------------------------------------------------------
 Center     Atomic      Atomic             Coordinates (Angstroms)
 Number     Number       Type             X           Y           Z
 ---------------------------------------------------------------------
      1          6           0        1.432209   -0.147413   -0.505721
      2          6           0       -1.795148   -0.947945   -0.037584
      3          6           0       -0.263113    2.337702    0.612094
      4          6           0        0.218381    2.040386   -0.804790
      5          6           0       -1.390176    1.338079    0.811505
      6          6           0        0.096997    0.518012   -0.911465
      7          6           0       -1.396018   -2.026839   -1.010951
      8          6           0        2.659874   -1.235424    1.346711
      9          7           0       -1.031194    0.196385   -0.017703
     10          7           0        1.479343   -0.634302    0.781404
     11          8           0        2.414531   -0.160762   -1.249958
     12          8           0       -2.767954   -1.091986    0.706908
     13          1           0        0.543781    2.146643    1.329295
     14          1           0       -0.592660    3.372373    0.741017
     15          1           0       -0.458743    2.516525   -1.524691
     16          1           0        1.229147    2.418651   -0.984716
     17          1           0       -1.512739    1.032613    1.854977
     18          1           0       -2.345051    1.732300    0.446013
     19          1           0       -0.133375    0.201321   -1.933647
     20          1           0       -0.362708   -2.336359   -0.840415
     21          1           0       -1.516105   -1.668885   -2.036552
     22          1           0       -2.042249   -2.898520   -0.870814
     23          1           0        3.080690   -1.958111    0.642597
     24          1           0        2.387009   -1.734539    2.279099
     25          1           0        3.393667   -0.449828    1.544546
     26          1           0        0.641648   -0.546125    1.353001
 ---------------------------------------------------------------------
 Rotational constants (GHZ):      1.1543999      0.7903112      0.6288280
 Standard basis: 6-31G(d) (6D, 7F)
 There are   208 symmetry adapted basis functions of A   symmetry.
 Integral buffers will be    131072 words long.
 Raffenetti 2 integral format.
 Two-electron integral symmetry is turned on.
   208 basis functions,   392 primitive gaussians,   208 cartesian basis functions
    46 alpha electrons       46 beta electrons
       nuclear repulsion energy       763.5219650594 Hartrees.
 NAtoms=   26 NActive=   26 NUniq=   26 SFac= 1.00D+00 NAtFMM=   60 NAOKFM=F Big=F
 One-electron integrals computed using PRISM.
 NBasis=   208 RedAO= T  NBF=   208
 NBsUse=   208 1.00D-06 NBFU=   208
 Harris functional with IExCor=  402 diagonalized for initial guess.
 ExpMin= 1.61D-01 ExpMax= 5.48D+03 ExpMxC= 8.25D+02 IAcc=3 IRadAn=         5 AccDes= 0.00D+00
 HarFok:  IExCor=  402 AccDes= 0.00D+00 IRadAn=         5 IDoV= 1
 ScaDFX=  1.000000  1.000000  1.000000  1.000000
 FoFCou: FMM=F IPFlag=           0 FMFlag=      100000 FMFlg1=           0
         NFxFlg=           0 DoJE=T BraDBF=F KetDBF=T FulRan=T
         Omega=  0.000000  0.000000  1.000000  0.000000  0.000000 ICntrl=     500 IOpCl=  0
         NMat0=    1 NMatS0=    1 NMatT0=    0 NMatD0=    1 NMtDS0=    0 NMtDT0=    0
         I1Cent=           4 NGrid=           0.
 Petite list used in FoFCou.
 Initial guess orbital symmetries:
       Occupied  (A) (A) (A) (A) (A) (A) (A) (A) (A) (A) (A) (A)
                 (A) (A) (A) (A) (A) (A) (A) (A) (A) (A) (A) (A)
                 (A) (A) (A) (A) (A) (A) (A) (A) (A) (A) (A) (A)
                 (A) (A) (A) (A) (A) (A) (A) (A) (A) (A)
       Virtual   (A) (A) (A) (A) (A) (A) (A) (A) (A) (A) (A) (A)
                 (A) (A) (A) (A) (A) (A) (A) (A) (A) (A) (A) (A)
                 (A) (A) (A) (A) (A) (A) (A) (A) (A) (A) (A) (A)
                 (A) (A) (A) (A) (A) (A) (A) (A) (A) (A) (A) (A)
                 (A) (A) (A) (A) (A) (A) (A) (A) (A) (A) (A) (A)
                 (A) (A) (A) (A) (A) (A) (A) (A) (A) (A) (A) (A)
                 (A) (A) (A) (A) (A) (A) (A) (A) (A) (A) (A) (A)
                 (A) (A) (A) (A) (A) (A) (A) (A) (A) (A) (A) (A)
                 (A) (A) (A) (A) (A) (A) (A) (A) (A) (A) (A) (A)
                 (A) (A) (A) (A) (A) (A) (A) (A) (A) (A) (A) (A)
                 (A) (A) (A) (A) (A) (A) (A) (A) (A) (A) (A) (A)
                 (A) (A) (A) (A) (A) (A) (A) (A) (A) (A) (A) (A)
                 (A) (A) (A) (A) (A) (A) (A) (A) (A) (A) (A) (A)
                 (A) (A) (A) (A) (A) (A)
 The electronic state of the initial guess is 1-A.
 Requested convergence on RMS density matrix=1.00D-08 within 128 cycles.
 Requested convergence on MAX density matrix=1.00D-06.
 Requested convergence on             energy=1.00D-06.
 No special actions if energy rises.
 Integral accuracy reduced to 1.0D-05 until final iterations.
 Initial convergence to 1.0D-05 achieved.  Increase integral accuracy.
 SCF Done:  E(RB3LYP) =  -573.260361066     A.U. after   14 cycles
             Convg  =    0.8294D-08             -V/T =  2.0093
 Calling FoFJK, ICntrl=      2127 FMM=F ISym2X=0 I1Cent= 0 IOpClX= 0 NMat=1 NMatS=1 NMatT=0.
 ***** Axes restored to original set *****
 -------------------------------------------------------------------
 Center     Atomic                   Forces (Hartrees/Bohr)
 Number     Number              X              Y              Z
 -------------------------------------------------------------------
      1        6          -0.011212764    0.007016091   -0.012222488
      2        6          -0.006502363   -0.013973808    0.005173475
      3        6          -0.001503351   -0.000383960   -0.005327489
      4        6           0.009608818   -0.003500777   -0.004793206
      5        6          -0.003335355   -0.014043440    0.004395930
      6        6          -0.006245748    0.008036607    0.007815512
      7        6          -0.002464476    0.002971363    0.003138662
      8        6           0.002187150    0.001090565   -0.002827172
      9        7           0.000353233    0.011562167   -0.001799837
     10        7           0.013393006   -0.012457171    0.015126453
     11        8          -0.001981941   -0.011429256    0.006669243
     12        8           0.006157634    0.004456529   -0.008293104
     13        1           0.000446131   -0.000617527   -0.000910984
     14        1          -0.000667256   -0.000296365   -0.000262501
     15        1           0.000277590    0.001820057    0.000410099
     16        1          -0.000128054    0.002935664    0.004089458
     17        1           0.000667041   -0.002794764    0.001918889
     18        1          -0.001574081   -0.005283897   -0.001587033
     19        1           0.000051847    0.003008955   -0.002742385
     20        1           0.002918468    0.004361920   -0.000009396
     21        1           0.001336330    0.004697434    0.000106832
     22        1           0.001419968   -0.002513622   -0.002453837
     23        1          -0.000851178    0.001048288   -0.001906049
     24        1          -0.000438213    0.001468328   -0.000772765
     25        1          -0.004041848    0.005118878   -0.003447962
     26        1           0.002129412    0.007701741    0.000511656
 -------------------------------------------------------------------
 Cartesian Forces:  Max     0.015126453 RMS     0.005626325

 GradGradGradGradGradGradGradGradGradGradGradGradGradGradGradGradGradGrad
 Berny optimization.
 Internal  Forces:  Max     0.014275672 RMS     0.003748716
 Search for a local minimum.
 Step number   1 out of a maximum of  149
 All quantities printed in internal units (Hartrees-Bohrs-Radians)
 Mixed Optimization -- RFO/linear search
 Second derivative matrix not updated -- first step.
 ITU=  0
     Eigenvalues ---    0.00230   0.00579   0.00675   0.00719   0.00953
     Eigenvalues ---    0.01092   0.01158   0.01213   0.01488   0.01997
     Eigenvalues ---    0.02009   0.02698   0.03115   0.04619   0.04961
     Eigenvalues ---    0.05211   0.05427   0.05805   0.06091   0.06399
     Eigenvalues ---    0.06616   0.06877   0.06960   0.07268   0.07487
     Eigenvalues ---    0.07770   0.07884   0.08650   0.09373   0.10759
     Eigenvalues ---    0.13719   0.15998   0.16000   0.16000   0.16000
     Eigenvalues ---    0.16000   0.16000   0.16000   0.19332   0.21225
     Eigenvalues ---    0.22000   0.24563   0.24924   0.25000   0.25000
     Eigenvalues ---    0.25000   0.27475   0.27991   0.28539   0.29353
     Eigenvalues ---    0.31664   0.33976   0.34013   0.34090   0.34151
     Eigenvalues ---    0.34283   0.34337   0.34340   0.34342   0.34410
     Eigenvalues ---    0.34443   0.34463   0.34481   0.34559   0.34575
     Eigenvalues ---    0.36161   0.39539   0.44666   0.49665   0.49832
     Eigenvalues ---    0.89669   0.90058
 RFO step:  Lambda=-8.49392056D-03 EMin= 2.30000000D-03
 Linear search not attempted -- first point.
 Iteration  1 RMS(Cart)=  0.09681101 RMS(Int)=  0.00356434
 Iteration  2 RMS(Cart)=  0.00534204 RMS(Int)=  0.00037421
 Iteration  3 RMS(Cart)=  0.00001837 RMS(Int)=  0.00037407
 Iteration  4 RMS(Cart)=  0.00000000 RMS(Int)=  0.00037407
 Variable       Old X    -DE/DX   Delta X   Delta X   Delta X     New X
                                 (Linear)    (Quad)   (Total)
    R1        2.92157  -0.00036   0.00000  -0.00124  -0.00124   2.92034
    R2        2.60205  -0.01428   0.00000  -0.02826  -0.02826   2.57379
    R3        2.32906  -0.01250   0.00000  -0.01375  -0.01375   2.31531
    R4        2.84764   0.00823   0.00000   0.02531   0.02531   2.87295
    R5        2.60036  -0.00347   0.00000  -0.00684  -0.00684   2.59352
    R6        2.33086  -0.00901   0.00000  -0.00996  -0.00996   2.32090
    R7        2.88318   0.00920   0.00000   0.02889   0.02875   2.91193
    R8        2.87169   0.00765   0.00000   0.02428   0.02426   2.89595
    R9        2.07178   0.00013   0.00000   0.00038   0.00038   2.07216
   R10        2.06644  -0.00006   0.00000  -0.00018  -0.00018   2.06626
   R11        2.89303   0.00719   0.00000   0.02150   0.02153   2.91456
   R12        2.07307  -0.00021   0.00000  -0.00061  -0.00061   2.07246
   R13        2.06759  -0.00116   0.00000  -0.00331  -0.00331   2.06429
   R14        2.75143   0.01235   0.00000   0.03423   0.03428   2.78572
   R15        2.06764   0.00017   0.00000   0.00048   0.00048   2.06812
   R16        2.07076   0.00181   0.00000   0.00517   0.00517   2.07593
   R17        2.78699   0.00049   0.00000   0.00244   0.00252   2.78951
   R18        2.06856  -0.00079   0.00000  -0.00224  -0.00224   2.06631
   R19        2.06371   0.00226   0.00000   0.00637   0.00637   2.07008
   R20        2.06526   0.00231   0.00000   0.00653   0.00653   2.07179
   R21        2.06757  -0.00239   0.00000  -0.00678  -0.00678   2.06079
   R22        2.72184   0.01158   0.00000   0.02867   0.02867   2.75052
   R23        2.06589   0.00008   0.00000   0.00021   0.00021   2.06611
   R24        2.06397  -0.00020   0.00000  -0.00057  -0.00057   2.06341
   R25        2.06556   0.00259   0.00000   0.00734   0.00734   2.07290
   R26        1.92365  -0.00769   0.00000  -0.01690  -0.01690   1.90676
    A1        2.01206   0.00631   0.00000   0.02704   0.02507   2.03712
    A2        2.13474  -0.00787   0.00000  -0.02811  -0.03005   2.10469
    A3        2.13335   0.00171   0.00000   0.00956   0.00755   2.14090
    A4        2.04619  -0.00040   0.00000  -0.00154  -0.00154   2.04465
    A5        2.11200   0.00805   0.00000   0.03112   0.03112   2.14312
    A6        2.12500  -0.00765   0.00000  -0.02958  -0.02959   2.09541
    A7        1.80055   0.00125   0.00000   0.00327   0.00320   1.80375
    A8        1.91908  -0.00086   0.00000   0.00287   0.00275   1.92183
    A9        1.97032   0.00063   0.00000   0.00250   0.00263   1.97295
   A10        1.92344   0.00086   0.00000   0.00583   0.00584   1.92928
   A11        1.96430  -0.00157   0.00000  -0.00616  -0.00617   1.95813
   A12        1.88554  -0.00026   0.00000  -0.00741  -0.00741   1.87813
   A13        1.80644   0.00122   0.00000   0.00385   0.00380   1.81024
   A14        1.90715   0.00009   0.00000   0.01277   0.01276   1.91991
   A15        1.95723   0.00279   0.00000   0.03203   0.03209   1.98932
   A16        1.91446   0.00035   0.00000  -0.00651  -0.00662   1.90784
   A17        1.98841  -0.00418   0.00000  -0.03436  -0.03444   1.95397
   A18        1.88835  -0.00013   0.00000  -0.00615  -0.00695   1.88140
   A19        1.83197  -0.00700   0.00000  -0.02769  -0.02751   1.80446
   A20        1.97346   0.00301   0.00000   0.01258   0.01246   1.98592
   A21        1.94536   0.00117   0.00000   0.00455   0.00487   1.95023
   A22        1.93033   0.00232   0.00000   0.00551   0.00563   1.93596
   A23        1.88282   0.00416   0.00000   0.03837   0.03828   1.92110
   A24        1.89749  -0.00347   0.00000  -0.03064  -0.03070   1.86679
   A25        1.91903   0.00222   0.00000   0.01294   0.01293   1.93196
   A26        1.99079   0.00299   0.00000   0.02748   0.02749   2.01828
   A27        1.87791  -0.00343   0.00000  -0.03250  -0.03270   1.84521
   A28        1.80831  -0.00376   0.00000  -0.01595  -0.01611   1.79220
   A29        1.94921  -0.00013   0.00000  -0.01554  -0.01552   1.93369
   A30        1.91965   0.00226   0.00000   0.02464   0.02468   1.94433
   A31        1.93122   0.00395   0.00000   0.02314   0.02316   1.95438
   A32        1.92044   0.00425   0.00000   0.02284   0.02286   1.94330
   A33        1.90841  -0.00494   0.00000  -0.02671  -0.02655   1.88186
   A34        1.92127  -0.00533   0.00000  -0.03653  -0.03663   1.88464
   A35        1.88921   0.00147   0.00000   0.01336   0.01351   1.90272
   A36        1.89256   0.00046   0.00000   0.00323   0.00339   1.89595
   A37        1.91623   0.00101   0.00000   0.00377   0.00358   1.91981
   A38        1.89759   0.00060   0.00000   0.00309   0.00282   1.90040
   A39        1.89791   0.00968   0.00000   0.06011   0.05968   1.95760
   A40        1.92187  -0.00198   0.00000  -0.01702  -0.01704   1.90482
   A41        1.91057  -0.00516   0.00000  -0.02978  -0.03011   1.88046
   A42        1.91946  -0.00396   0.00000  -0.01890  -0.01939   1.90008
   A43        2.12167  -0.00710   0.00000  -0.02908  -0.02916   2.09251
   A44        2.21092  -0.00040   0.00000  -0.00295  -0.00312   2.20781
   A45        1.94200   0.00741   0.00000   0.02891   0.02888   1.97088
   A46        2.14422  -0.00493   0.00000  -0.02150  -0.02155   2.12267
   A47        2.05566   0.00184   0.00000   0.00717   0.00711   2.06277
   A48        2.08317   0.00310   0.00000   0.01463   0.01457   2.09774
    D1        1.73393   0.00180   0.00000   0.14500   0.14452   1.87845
    D2       -0.28830   0.00318   0.00000   0.13934   0.13849  -0.14981
    D3       -2.42284   0.00083   0.00000   0.11348   0.11314  -2.30970
    D4       -1.32572  -0.00046   0.00000   0.02982   0.03046  -1.29526
    D5        2.93524   0.00093   0.00000   0.02416   0.02443   2.95966
    D6        0.80070  -0.00142   0.00000  -0.00169  -0.00092   0.79977
    D7       -3.09603   0.00016   0.00000  -0.02192  -0.02269  -3.11872
    D8        0.02796   0.00063   0.00000  -0.00194  -0.00276   0.02520
    D9       -0.03630   0.00191   0.00000   0.09120   0.09202   0.05572
   D10        3.08768   0.00238   0.00000   0.11119   0.11195  -3.08355
   D11        0.99463  -0.00092   0.00000  -0.01785  -0.01777   0.97685
   D12       -1.13238   0.00031   0.00000  -0.00257  -0.00270  -1.13508
   D13        3.07394   0.00021   0.00000  -0.00398  -0.00401   3.06993
   D14       -2.14736  -0.00085   0.00000  -0.01399  -0.01386  -2.16123
   D15        2.00882   0.00039   0.00000   0.00128   0.00121   2.01002
   D16       -0.06805   0.00029   0.00000  -0.00013  -0.00010  -0.06815
   D17        3.05930  -0.00025   0.00000  -0.01660  -0.01645   3.04286
   D18        0.07075   0.00000   0.00000   0.00874   0.00850   0.07925
   D19       -0.08189  -0.00034   0.00000  -0.02050  -0.02026  -0.10215
   D20       -3.07044  -0.00008   0.00000   0.00484   0.00469  -3.06576
   D21       -0.64436  -0.00247   0.00000  -0.01524  -0.01526  -0.65962
   D22        1.39436  -0.00140   0.00000  -0.01505  -0.01515   1.37921
   D23       -2.79514   0.00027   0.00000   0.00625   0.00636  -2.78878
   D24        1.40700  -0.00120   0.00000  -0.00546  -0.00551   1.40149
   D25       -2.83746  -0.00013   0.00000  -0.00528  -0.00540  -2.84286
   D26       -0.74378   0.00154   0.00000   0.01602   0.01611  -0.72767
   D27       -2.76927  -0.00171   0.00000  -0.01122  -0.01126  -2.78053
   D28       -0.73055  -0.00064   0.00000  -0.01103  -0.01115  -0.74170
   D29        1.36313   0.00103   0.00000   0.01027   0.01036   1.37350
   D30        0.51581  -0.00017   0.00000   0.01097   0.01080   0.52661
   D31        2.62143  -0.00022   0.00000   0.00671   0.00657   2.62800
   D32       -1.51784  -0.00166   0.00000  -0.02082  -0.02095  -1.53880
   D33       -1.53248  -0.00024   0.00000   0.00326   0.00319  -1.52929
   D34        0.57314  -0.00028   0.00000  -0.00101  -0.00104   0.57210
   D35        2.71705  -0.00172   0.00000  -0.02853  -0.02856   2.68849
   D36        2.64478   0.00055   0.00000   0.01277   0.01270   2.65748
   D37       -1.53279   0.00050   0.00000   0.00851   0.00847  -1.52432
   D38        0.61112  -0.00094   0.00000  -0.01902  -0.01905   0.59207
   D39       -1.60695  -0.00222   0.00000  -0.03123  -0.03115  -1.63810
   D40        0.52742   0.00027   0.00000  -0.00136  -0.00137   0.52604
   D41        2.59286   0.00069   0.00000   0.01088   0.01099   2.60385
   D42        2.64266  -0.00311   0.00000  -0.04504  -0.04485   2.59781
   D43       -1.50616  -0.00063   0.00000  -0.01517  -0.01508  -1.52124
   D44        0.55928  -0.00020   0.00000  -0.00293  -0.00271   0.55657
   D45        0.52313  -0.00031   0.00000  -0.00854  -0.00871   0.51443
   D46        2.65750   0.00217   0.00000   0.02133   0.02107   2.67857
   D47       -1.56025   0.00260   0.00000   0.03357   0.03344  -1.52681
   D48        3.08264   0.00050   0.00000   0.00968   0.00965   3.09229
   D49       -0.19053  -0.00013   0.00000  -0.01384  -0.01392  -0.20445
   D50        0.94876  -0.00011   0.00000   0.00848   0.00843   0.95719
   D51       -2.32440  -0.00075   0.00000  -0.01505  -0.01514  -2.33955
   D52       -1.12437   0.00025   0.00000   0.01921   0.01903  -1.10534
   D53        1.88565  -0.00039   0.00000  -0.00431  -0.00454   1.88111
   D54       -1.40866   0.00056   0.00000   0.00235   0.00195  -1.40672
   D55        1.87277   0.00181   0.00000   0.02958   0.02954   1.90231
   D56        2.78863  -0.00128   0.00000  -0.01761  -0.01790   2.77072
   D57       -0.21313  -0.00003   0.00000   0.00962   0.00969  -0.20344
   D58        0.70282  -0.00014   0.00000  -0.00252  -0.00246   0.70037
   D59       -2.29893   0.00111   0.00000   0.02471   0.02514  -2.27379
   D60       -0.82073  -0.00027   0.00000   0.00598   0.00587  -0.81485
   D61        2.33874  -0.00074   0.00000  -0.01423  -0.01437   2.32437
   D62       -2.92425   0.00117   0.00000   0.02261   0.02282  -2.90143
   D63        0.23521   0.00070   0.00000   0.00241   0.00258   0.23779
   D64        1.26921  -0.00006   0.00000   0.00850   0.00846   1.27767
   D65       -1.85451  -0.00053   0.00000  -0.01170  -0.01178  -1.86629
         Item               Value     Threshold  Converged?
 Maximum Force            0.014276     0.000450     NO 
 RMS     Force            0.003749     0.000300     NO 
 Maximum Displacement     0.402346     0.001800     NO 
 RMS     Displacement     0.096796     0.001200     NO 
 Predicted change in Energy=-4.748110D-03
 GradGradGradGradGradGradGradGradGradGradGradGradGradGradGradGradGradGrad

                          Input orientation:                          
 ---------------------------------------------------------------------
 Center     Atomic      Atomic             Coordinates (Angstroms)
 Number     Number       Type             X           Y           Z
 ---------------------------------------------------------------------
      1          6           0       -0.026739   -0.844849   -0.621345
      2          6           0       -0.645481   -3.167931    1.754554
      3          6           0        1.032877   -3.817536   -1.448220
      4          6           0        1.797598   -2.585472   -0.926994
      5          6           0        0.295423   -4.327966   -0.205604
      6          6           0        0.814819   -1.940350    0.071363
      7          6           0       -0.740684   -1.893603    2.578163
      8          6           0       -2.219035   -0.192637   -1.527241
      9          7           0        0.058232   -3.102153    0.578106
     10          7           0       -1.336471   -1.135571   -0.856074
     11          8           0        0.471396    0.237984   -0.905021
     12          8           0       -1.168642   -4.223972    2.100212
     13          1           0        0.318018   -3.517380   -2.223646
     14          1           0        1.689561   -4.577677   -1.880092
     15          1           0        2.701087   -2.903128   -0.392625
     16          1           0        2.101129   -1.887228   -1.710322
     17          1           0       -0.647095   -4.837026   -0.429734
     18          1           0        0.910207   -5.031663    0.372003
     19          1           0        1.355258   -1.434351    0.876045
     20          1           0       -1.161379   -1.062961    2.001068
     21          1           0        0.243382   -1.583820    2.949138
     22          1           0       -1.387234   -2.096005    3.432705
     23          1           0       -2.097390    0.804908   -1.096551
     24          1           0       -3.252542   -0.517664   -1.391280
     25          1           0       -2.008110   -0.121001   -2.601317
     26          1           0       -1.688589   -2.029957   -0.549167
 ---------------------------------------------------------------------
                    Distance matrix (angstroms):
                    1          2          3          4          5
     1  C    0.000000
     2  C    3.380006   0.000000
     3  C    3.262419   3.673776   0.000000
     4  C    2.539959   3.674042   1.540927   0.000000
     5  C    3.522603   2.464386   1.532472   2.411062   0.000000
     6  C    1.545376   2.544123   2.424976   1.542320   2.459104
     7  C    3.441867   1.520298   4.801957   4.382656   3.840443
     8  C    2.460120   4.700917   4.870428   4.713735   5.016989
     9  N    2.557601   1.372431   2.359598   2.357473   1.474137
    10  N    1.361989   3.379841   3.627311   3.453929   3.643840
    11  O    1.225210   4.463296   4.130081   3.119487   4.622559
    12  O    4.486567   1.228169   4.195622   4.543923   2.733329
    13  H    3.135068   4.108104   1.096542   2.176906   2.174869
    14  H    4.296992   4.544277   1.093418   2.211097   2.193145
    15  H    3.424889   3.984973   2.175626   1.096699   2.802206
    16  H    2.607729   4.603198   2.221700   1.092373   3.388503
    17  H    4.044629   2.748998   2.213364   3.360548   1.094402
    18  H    4.403864   2.793763   2.191430   2.908386   1.098535
    19  H    2.121227   2.789270   3.344504   2.184420   3.265918
    20  H    2.865664   2.181243   4.929506   4.432508   4.201421
    21  H    3.656144   2.174055   4.994952   4.294565   4.181560
    22  H    4.455519   2.124951   5.713496   5.421227   4.588058
    23  H    2.689817   5.101009   5.593678   5.166658   5.732865
    24  H    3.332514   4.870005   5.408994   5.476796   5.339690
    25  H    2.893109   5.487636   4.923577   4.833259   5.361368
    26  H    2.042409   2.773118   3.377886   3.550331   3.055354
                    6          7          8          9         10
     6  C    0.000000
     7  C    2.950563   0.000000
     8  C    3.848936   4.683284   0.000000
     9  N    1.476144   2.469632   4.252495   0.000000
    10  N    2.477066   3.567009   1.455511   2.805265   0.000000
    11  O    2.411722   4.259738   2.794818   3.677892   2.270998
    12  O    3.642153   2.417065   5.523894   2.253997   4.278552
    13  H    2.828587   5.178308   4.239757   2.844244   3.206338
    14  H    3.395415   5.743377   5.884744   3.298658   4.696124
    15  H    2.168002   4.657307   5.730770   2.822519   4.431807
    16  H    2.198139   5.144613   4.644241   3.299451   3.621025
    17  H    3.283142   4.209506   5.024527   2.126737   3.789165
    18  H    3.107362   4.176123   6.067575   2.119281   4.662110
    19  H    1.093445   2.738811   4.482545   2.133684   3.214795
    20  H    2.898092   1.095440   3.784846   2.769580   2.863422
    21  H    2.955545   1.096346   5.294984   2.821597   4.144454
    22  H    4.021428   1.090521   5.377338   3.354167   4.395296
    23  H    4.169104   4.756694   1.093338   4.766163   2.098163
    24  H    4.550471   4.894805   1.091908   4.638889   2.083166
    25  H    4.292107   5.619208   1.096933   4.823461   2.127517
    26  H    2.580725   3.270674   2.147964   2.339173   1.009012
                   11         12         13         14         15
    11  O    0.000000
    12  O    5.624073   0.000000
    13  H    3.983096   4.626573   0.000000
    14  H    5.062142   4.912968   1.767311   0.000000
    15  H    3.885957   4.788911   3.067404   2.457613   0.000000
    16  H    2.796617   5.538226   2.469896   2.727037   1.768708
    17  H    5.218490   2.654896   2.427144   2.762383   3.866737
    18  H    5.439902   2.821468   3.062864   2.425990   2.884886
    19  H    2.598099   3.956088   3.875947   4.193871   2.361797
    20  H    3.578235   3.162574   5.104998   5.961920   4.902512
    21  H    4.269134   3.112056   5.522855   5.863112   4.352960
    22  H    5.264777   2.520231   6.076389   6.622022   5.656762
    23  H    2.637564   6.030879   5.078063   6.627757   6.104951
    24  H    3.830817   5.501806   4.737091   6.414595   6.491028
    25  H    3.025598   6.296305   4.133872   5.835658   5.898737
    26  H    3.152099   3.478973   3.007122   4.435554   4.478414
                   16         17         18         19         20
    16  H    0.000000
    17  H    4.230124   0.000000
    18  H    3.954978   1.762344   0.000000
    19  H    2.729600   4.158445   3.659615   0.000000
    20  H    5.009770   4.518501   4.764024   2.781558   0.000000
    21  H    5.025320   4.774209   4.355905   2.357185   1.772988
    22  H    6.217957   4.793687   4.823300   3.807302   1.779824
    23  H    5.025124   5.863397   6.728140   4.563573   3.736348
    24  H    5.535276   5.135154   6.388571   5.216598   4.022230
    25  H    4.560623   5.367404   6.439861   5.012902   4.773488
    26  H    3.966185   2.996433   4.075848   3.413353   2.777900
                   21         22         23         24         25
    21  H    0.000000
    22  H    1.776254   0.000000
    23  H    5.249079   5.425290   0.000000
    24  H    5.674275   5.407528   1.780572   0.000000
    25  H    6.165761   6.379306   1.769068   1.780489   0.000000
    26  H    4.021155   3.993805   2.916027   2.332838   2.820910
                   26
    26  H    0.000000
 Stoichiometry    C8H14N2O2
 Framework group  C1[X(C8H14N2O2)]
 Deg. of freedom    72
 Full point group                 C1      NOp   1
 Largest Abelian subgroup         C1      NOp   1
 Largest concise Abelian subgroup C1      NOp   1
                         Standard orientation:                         
 ---------------------------------------------------------------------
 Center     Atomic      Atomic             Coordinates (Angstroms)
 Number     Number       Type             X           Y           Z
 ---------------------------------------------------------------------
      1          6           0        1.472068    0.032536   -0.439522
      2          6           0       -1.692239   -1.097892   -0.073822
      3          6           0       -0.575399    2.325879    0.652188
      4          6           0        0.010575    2.086159   -0.752670
      5          6           0       -1.609777    1.204869    0.800072
      6          6           0        0.078661    0.549315   -0.863244
      7          6           0       -1.134418   -2.134818   -1.035554
      8          6           0        2.811547   -1.118563    1.273066
      9          7           0       -1.049008    0.113111   -0.016433
     10          7           0        1.547787   -0.613241    0.757245
     11          8           0        2.440864    0.176701   -1.175586
     12          8           0       -2.672209   -1.308178    0.635992
     13          1           0        0.210459    2.226731    1.410477
     14          1           0       -1.021847    3.317469    0.766189
     15          1           0       -0.674233    2.474718   -1.516089
     16          1           0        0.986342    2.550705   -0.911899
     17          1           0       -1.764075    0.880227    1.833762
     18          1           0       -2.591675    1.502899    0.407853
     19          1           0       -0.053611    0.228522   -1.900172
     20          1           0       -0.076472   -2.344556   -0.843853
     21          1           0       -1.230965   -1.805909   -2.076934
     22          1           0       -1.707972   -3.053188   -0.905679
     23          1           0        3.346624   -1.659079    0.487622
     24          1           0        2.607941   -1.799986    2.101601
     25          1           0        3.465082   -0.312672    1.629005
     26          1           0        0.697594   -0.738065    1.286108
 ---------------------------------------------------------------------
 Rotational constants (GHZ):      1.1510659      0.7893901      0.6126401
 Standard basis: 6-31G(d) (6D, 7F)
 There are   208 symmetry adapted basis functions of A   symmetry.
 Integral buffers will be    131072 words long.
 Raffenetti 2 integral format.
 Two-electron integral symmetry is turned on.
   208 basis functions,   392 primitive gaussians,   208 cartesian basis functions
    46 alpha electrons       46 beta electrons
       nuclear repulsion energy       760.7501758731 Hartrees.
 NAtoms=   26 NActive=   26 NUniq=   26 SFac= 1.00D+00 NAtFMM=   60 NAOKFM=F Big=F
 One-electron integrals computed using PRISM.
 NBasis=   208 RedAO= T  NBF=   208
 NBsUse=   208 1.00D-06 NBFU=   208
 Initial guess read from the read-write file.
 B after Tr=     0.000000    0.000000    0.000000
         Rot=    1.000000    0.000000    0.000000    0.000000 Ang=   0.00 deg.
 Initial guess orbital symmetries:
       Occupied  (A) (A) (A) (A) (A) (A) (A) (A) (A) (A) (A) (A)
                 (A) (A) (A) (A) (A) (A) (A) (A) (A) (A) (A) (A)
                 (A) (A) (A) (A) (A) (A) (A) (A) (A) (A) (A) (A)
                 (A) (A) (A) (A) (A) (A) (A) (A) (A) (A)
       Virtual   (A) (A) (A) (A) (A) (A) (A) (A) (A) (A) (A) (A)
                 (A) (A) (A) (A) (A) (A) (A) (A) (A) (A) (A) (A)
                 (A) (A) (A) (A) (A) (A) (A) (A) (A) (A) (A) (A)
                 (A) (A) (A) (A) (A) (A) (A) (A) (A) (A) (A) (A)
                 (A) (A) (A) (A) (A) (A) (A) (A) (A) (A) (A) (A)
                 (A) (A) (A) (A) (A) (A) (A) (A) (A) (A) (A) (A)
                 (A) (A) (A) (A) (A) (A) (A) (A) (A) (A) (A) (A)
                 (A) (A) (A) (A) (A) (A) (A) (A) (A) (A) (A) (A)
                 (A) (A) (A) (A) (A) (A) (A) (A) (A) (A) (A) (A)
                 (A) (A) (A) (A) (A) (A) (A) (A) (A) (A) (A) (A)
                 (A) (A) (A) (A) (A) (A) (A) (A) (A) (A) (A) (A)
                 (A) (A) (A) (A) (A) (A) (A) (A) (A) (A) (A) (A)
                 (A) (A) (A) (A) (A) (A) (A) (A) (A) (A) (A) (A)
                 (A) (A) (A) (A) (A) (A)
 Harris functional with IExCor=  402 diagonalized for initial guess.
 ExpMin= 1.61D-01 ExpMax= 5.48D+03 ExpMxC= 8.25D+02 IAcc=3 IRadAn=         5 AccDes= 0.00D+00
 HarFok:  IExCor=  402 AccDes= 0.00D+00 IRadAn=         5 IDoV= 1
 ScaDFX=  1.000000  1.000000  1.000000  1.000000
 FoFCou: FMM=F IPFlag=           0 FMFlag=      100000 FMFlg1=           0
         NFxFlg=           0 DoJE=T BraDBF=F KetDBF=T FulRan=T
         Omega=  0.000000  0.000000  1.000000  0.000000  0.000000 ICntrl=     500 IOpCl=  0
         NMat0=    1 NMatS0=    1 NMatT0=    0 NMatD0=    1 NMtDS0=    0 NMtDT0=    0
         I1Cent=           4 NGrid=           0.
 Petite list used in FoFCou.
 Requested convergence on RMS density matrix=1.00D-08 within 128 cycles.
 Requested convergence on MAX density matrix=1.00D-06.
 Requested convergence on             energy=1.00D-06.
 No special actions if energy rises.
 Integral accuracy reduced to 1.0D-05 until final iterations.
 Initial convergence to 1.0D-05 achieved.  Increase integral accuracy.
 SCF Done:  E(RB3LYP) =  -573.263968731     A.U. after   14 cycles
             Convg  =    0.3816D-08             -V/T =  2.0094
 Calling FoFJK, ICntrl=      2127 FMM=F ISym2X=0 I1Cent= 0 IOpClX= 0 NMat=1 NMatS=1 NMatT=0.
 ***** Axes restored to original set *****
 -------------------------------------------------------------------
 Center     Atomic                   Forces (Hartrees/Bohr)
 Number     Number              X              Y              Z
 -------------------------------------------------------------------
      1        6          -0.007035709    0.003022927    0.005530418
      2        6          -0.000689744   -0.004920281    0.000706065
      3        6           0.000798510    0.001676098   -0.000226160
      4        6           0.002516853   -0.002538592   -0.002040384
      5        6           0.000333767   -0.000647234   -0.000654204
      6        6          -0.001874531   -0.003126106   -0.000964620
      7        6          -0.001577500   -0.000368370    0.001329388
      8        6          -0.000406141    0.000195961    0.001393848
      9        7           0.000882541    0.005805908   -0.003477505
     10        7           0.002533466   -0.000487984   -0.001922756
     11        8           0.003818535   -0.001574793   -0.002735934
     12        8          -0.000009597    0.002361750    0.001984161
     13        1          -0.000170341    0.000078039    0.000199059
     14        1           0.000380022    0.000133431   -0.000071237
     15        1          -0.000375959    0.000101471    0.000078451
     16        1          -0.000260598    0.000535692    0.000212357
     17        1           0.000159745    0.000898721    0.000674061
     18        1          -0.000613769    0.000728231    0.000636461
     19        1          -0.000278438    0.000478863    0.000154477
     20        1           0.001016201   -0.000014510   -0.000053567
     21        1           0.000112822    0.000237923   -0.000508463
     22        1          -0.000100116   -0.000321529    0.000302420
     23        1           0.000589031   -0.000036815    0.000258926
     24        1          -0.000337175   -0.000294733   -0.000016155
     25        1           0.000844576   -0.000985175    0.000418166
     26        1          -0.000256450   -0.000938893   -0.001207274
 -------------------------------------------------------------------
 Cartesian Forces:  Max     0.007035709 RMS     0.001817772

 GradGradGradGradGradGradGradGradGradGradGradGradGradGradGradGradGradGrad
 Berny optimization.
 Using GEDIIS/GDIIS optimizer.
 Internal  Forces:  Max     0.004008687 RMS     0.000985731
 Search for a local minimum.
 Step number   2 out of a maximum of  149
 All quantities printed in internal units (Hartrees-Bohrs-Radians)
 Mixed Optimization -- En-DIIS/RFO-DIIS
 Update second derivatives using D2CorX and points    1    2
 DE= -3.61D-03 DEPred=-4.75D-03 R= 7.60D-01
 SS=  1.41D+00  RLast= 3.45D-01 DXNew= 5.0454D-01 1.0344D+00
 Trust test= 7.60D-01 RLast= 3.45D-01 DXMaxT set to 5.05D-01
 ITU=  1  0
 Use linear search instead of GDIIS.
     Eigenvalues ---    0.00241   0.00583   0.00674   0.00726   0.01082
     Eigenvalues ---    0.01142   0.01158   0.01193   0.01494   0.02008
     Eigenvalues ---    0.02107   0.02713   0.03099   0.04642   0.05025
     Eigenvalues ---    0.05138   0.05392   0.05790   0.06080   0.06350
     Eigenvalues ---    0.06622   0.06861   0.06961   0.07075   0.07439
     Eigenvalues ---    0.07510   0.07761   0.08445   0.09260   0.10721
     Eigenvalues ---    0.13695   0.15684   0.16000   0.16000   0.16000
     Eigenvalues ---    0.16000   0.16000   0.16289   0.19697   0.21037
     Eigenvalues ---    0.21790   0.23593   0.24609   0.24999   0.25000
     Eigenvalues ---    0.26228   0.27552   0.27947   0.28758   0.29006
     Eigenvalues ---    0.31552   0.34011   0.34090   0.34122   0.34227
     Eigenvalues ---    0.34288   0.34323   0.34341   0.34393   0.34410
     Eigenvalues ---    0.34442   0.34473   0.34512   0.34559   0.34663
     Eigenvalues ---    0.35898   0.39874   0.44605   0.48735   0.50444
     Eigenvalues ---    0.89044   0.90079
 RFO step:  Lambda=-1.49984667D-03 EMin= 2.40930781D-03
 Quartic linear search produced a step of -0.12567.
 Iteration  1 RMS(Cart)=  0.06821691 RMS(Int)=  0.00141866
 Iteration  2 RMS(Cart)=  0.00291539 RMS(Int)=  0.00061231
 Iteration  3 RMS(Cart)=  0.00000378 RMS(Int)=  0.00061230
 Iteration  4 RMS(Cart)=  0.00000001 RMS(Int)=  0.00061230
 Variable       Old X    -DE/DX   Delta X   Delta X   Delta X     New X
                                 (Linear)    (Quad)   (Total)
    R1        2.92034  -0.00141   0.00016  -0.00483  -0.00467   2.91566
    R2        2.57379  -0.00213   0.00355  -0.01340  -0.00985   2.56394
    R3        2.31531   0.00079   0.00173  -0.00392  -0.00219   2.31312
    R4        2.87295   0.00022  -0.00318   0.00927   0.00609   2.87903
    R5        2.59352   0.00401   0.00086   0.00470   0.00556   2.59908
    R6        2.32090  -0.00147   0.00125  -0.00483  -0.00358   2.31732
    R7        2.91193  -0.00191  -0.00361   0.00447   0.00081   2.91274
    R8        2.89595   0.00079  -0.00305   0.01174   0.00868   2.90463
    R9        2.07216  -0.00001  -0.00005   0.00011   0.00006   2.07222
   R10        2.06626   0.00016   0.00002   0.00036   0.00038   2.06664
   R11        2.91456   0.00195  -0.00271   0.01279   0.01007   2.92463
   R12        2.07246  -0.00030   0.00008  -0.00098  -0.00090   2.07156
   R13        2.06429   0.00012   0.00042  -0.00083  -0.00042   2.06387
   R14        2.78572  -0.00049  -0.00431   0.01051   0.00624   2.79196
   R15        2.06812  -0.00069  -0.00006  -0.00160  -0.00166   2.06646
   R16        2.07593  -0.00048  -0.00065   0.00055  -0.00010   2.07583
   R17        2.78951  -0.00282  -0.00032  -0.00702  -0.00730   2.78221
   R18        2.06631   0.00020   0.00028  -0.00026   0.00002   2.06633
   R19        2.07008  -0.00037  -0.00080   0.00124   0.00044   2.07052
   R20        2.07179   0.00000  -0.00082   0.00222   0.00140   2.07319
   R21        2.06079   0.00036   0.00085  -0.00141  -0.00056   2.06022
   R22        2.75052  -0.00209  -0.00360   0.00518   0.00157   2.75209
   R23        2.06611   0.00013  -0.00003   0.00041   0.00039   2.06650
   R24        2.06341   0.00040   0.00007   0.00083   0.00090   2.06431
   R25        2.07290  -0.00031  -0.00092   0.00172   0.00080   2.07370
   R26        1.90676   0.00055   0.00212  -0.00469  -0.00257   1.90419
    A1        2.03712  -0.00084  -0.00315   0.00673  -0.00024   2.03688
    A2        2.10469  -0.00282   0.00378  -0.01914  -0.01904   2.08565
    A3        2.14090   0.00373  -0.00095   0.01680   0.01182   2.15272
    A4        2.04465  -0.00005   0.00019  -0.00068  -0.00053   2.04412
    A5        2.14312  -0.00310  -0.00391  -0.00013  -0.00408   2.13904
    A6        2.09541   0.00314   0.00372   0.00086   0.00453   2.09994
    A7        1.80375  -0.00032  -0.00040  -0.00096  -0.00137   1.80238
    A8        1.92183   0.00035  -0.00035   0.00149   0.00117   1.92300
    A9        1.97295  -0.00035  -0.00033  -0.00113  -0.00147   1.97148
   A10        1.92928  -0.00036  -0.00073   0.00127   0.00051   1.92979
   A11        1.95813   0.00062   0.00077   0.00018   0.00099   1.95913
   A12        1.87813   0.00005   0.00093  -0.00073   0.00019   1.87832
   A13        1.81024  -0.00081  -0.00048  -0.00593  -0.00642   1.80382
   A14        1.91991   0.00054  -0.00160   0.00847   0.00685   1.92677
   A15        1.98932   0.00024  -0.00403   0.01341   0.00929   1.99862
   A16        1.90784  -0.00008   0.00083  -0.00097  -0.00013   1.90771
   A17        1.95397   0.00013   0.00433  -0.01602  -0.01161   1.94237
   A18        1.88140  -0.00003   0.00087   0.00075   0.00164   1.88304
   A19        1.80446   0.00079   0.00346  -0.00541  -0.00196   1.80250
   A20        1.98592   0.00034  -0.00157   0.01031   0.00869   1.99461
   A21        1.95023   0.00025  -0.00061   0.00438   0.00377   1.95401
   A22        1.93596  -0.00096  -0.00071  -0.00459  -0.00531   1.93065
   A23        1.92110  -0.00062  -0.00481   0.00511   0.00031   1.92141
   A24        1.86679   0.00014   0.00386  -0.00935  -0.00551   1.86128
   A25        1.93196  -0.00058  -0.00162   0.00211   0.00053   1.93249
   A26        2.01828  -0.00028  -0.00345   0.00771   0.00425   2.02253
   A27        1.84521   0.00033   0.00411  -0.01179  -0.00767   1.83754
   A28        1.79220   0.00117   0.00202  -0.00103   0.00099   1.79319
   A29        1.93369  -0.00026   0.00195  -0.00515  -0.00325   1.93044
   A30        1.94433  -0.00042  -0.00310   0.00835   0.00525   1.94959
   A31        1.95438   0.00006  -0.00291   0.00787   0.00496   1.95934
   A32        1.94330  -0.00030  -0.00287   0.00487   0.00200   1.94530
   A33        1.88186  -0.00004   0.00334  -0.00759  -0.00427   1.87758
   A34        1.88464  -0.00047   0.00460  -0.01816  -0.01354   1.87110
   A35        1.90272   0.00049  -0.00170   0.00990   0.00818   1.91090
   A36        1.89595   0.00029  -0.00043   0.00347   0.00303   1.89898
   A37        1.91981  -0.00045  -0.00045  -0.00105  -0.00147   1.91833
   A38        1.90040   0.00037  -0.00035   0.00365   0.00333   1.90373
   A39        1.95760  -0.00194  -0.00750   0.00878   0.00133   1.95892
   A40        1.90482   0.00052   0.00214  -0.00096   0.00118   1.90600
   A41        1.88046   0.00092   0.00378  -0.00689  -0.00307   1.87739
   A42        1.90008   0.00064   0.00244  -0.00385  -0.00136   1.89872
   A43        2.09251  -0.00123   0.00366  -0.01503  -0.01153   2.08098
   A44        2.20781   0.00206   0.00039   0.00584   0.00596   2.21377
   A45        1.97088  -0.00090  -0.00363   0.00337  -0.00038   1.97050
   A46        2.12267  -0.00054   0.00271  -0.00953  -0.00682   2.11585
   A47        2.06277   0.00070  -0.00089   0.00580   0.00491   2.06768
   A48        2.09774  -0.00015  -0.00183   0.00374   0.00191   2.09966
    D1        1.87845  -0.00074  -0.01816  -0.02746  -0.04482   1.83363
    D2       -0.14981  -0.00165  -0.01740  -0.03272  -0.04929  -0.19911
    D3       -2.30970  -0.00117  -0.01422  -0.03955  -0.05299  -2.36269
    D4       -1.29526   0.00172  -0.00383   0.12245   0.11781  -1.17744
    D5        2.95966   0.00081  -0.00307   0.11719   0.11334   3.07301
    D6        0.79977   0.00129   0.00012   0.11036   0.10965   0.90942
    D7       -3.11872   0.00047   0.00285   0.06012   0.06391  -3.05481
    D8        0.02520   0.00028   0.00035   0.05702   0.05831   0.08351
    D9        0.05572  -0.00192  -0.01156  -0.09245  -0.10495  -0.04923
   D10       -3.08355  -0.00211  -0.01407  -0.09555  -0.11055   3.08909
   D11        0.97685  -0.00038   0.00223  -0.00931  -0.00711   0.96975
   D12       -1.13508   0.00039   0.00034   0.00508   0.00542  -1.12966
   D13        3.06993   0.00024   0.00050   0.00273   0.00322   3.07315
   D14       -2.16123  -0.00067   0.00174  -0.02661  -0.02487  -2.18609
   D15        2.01002   0.00010  -0.00015  -0.01222  -0.01234   1.99768
   D16       -0.06815  -0.00006   0.00001  -0.01456  -0.01453  -0.08268
   D17        3.04286  -0.00052   0.00207  -0.03585  -0.03381   3.00904
   D18        0.07925   0.00005  -0.00107   0.00680   0.00571   0.08496
   D19       -0.10215  -0.00025   0.00255  -0.01906  -0.01649  -0.11864
   D20       -3.06576   0.00032  -0.00059   0.02360   0.02303  -3.04272
   D21       -0.65962   0.00046   0.00192  -0.01233  -0.01035  -0.66997
   D22        1.37921   0.00019   0.00190  -0.01273  -0.01081   1.36840
   D23       -2.78878   0.00071  -0.00080   0.00383   0.00309  -2.78569
   D24        1.40149   0.00002   0.00069  -0.01068  -0.00996   1.39153
   D25       -2.84286  -0.00025   0.00068  -0.01108  -0.01042  -2.85328
   D26       -0.72767   0.00028  -0.00203   0.00548   0.00348  -0.72419
   D27       -2.78053   0.00009   0.00142  -0.01133  -0.00988  -2.79041
   D28       -0.74170  -0.00018   0.00140  -0.01173  -0.01034  -0.75204
   D29        1.37350   0.00035  -0.00130   0.00484   0.00356   1.37706
   D30        0.52661   0.00036  -0.00136   0.00415   0.00283   0.52944
   D31        2.62800  -0.00011  -0.00083   0.00056  -0.00027   2.62773
   D32       -1.53880   0.00051   0.00263  -0.00086   0.00177  -1.53702
   D33       -1.52929   0.00030  -0.00040   0.00235   0.00198  -1.52731
   D34        0.57210  -0.00017   0.00013  -0.00125  -0.00112   0.57098
   D35        2.68849   0.00045   0.00359  -0.00267   0.00093   2.68941
   D36        2.65748   0.00007  -0.00160   0.00228   0.00072   2.65820
   D37       -1.52432  -0.00040  -0.00106  -0.00131  -0.00238  -1.52670
   D38        0.59207   0.00022   0.00239  -0.00273  -0.00033   0.59173
   D39       -1.63810   0.00028   0.00392   0.00684   0.01072  -1.62738
   D40        0.52604   0.00036   0.00017   0.01651   0.01668   0.54272
   D41        2.60385   0.00040  -0.00138   0.02327   0.02184   2.62569
   D42        2.59781   0.00012   0.00564   0.00060   0.00622   2.60403
   D43       -1.52124   0.00020   0.00189   0.01027   0.01218  -1.50905
   D44        0.55657   0.00023   0.00034   0.01703   0.01734   0.57392
   D45        0.51443   0.00012   0.00109   0.01038   0.01151   0.52594
   D46        2.67857   0.00020  -0.00265   0.02004   0.01747   2.69604
   D47       -1.52681   0.00024  -0.00420   0.02681   0.02263  -1.50418
   D48        3.09229   0.00031  -0.00121   0.04405   0.04264   3.13493
   D49       -0.20445   0.00010   0.00175   0.00741   0.00919  -0.19526
   D50        0.95719  -0.00007  -0.00106   0.03743   0.03625   0.99344
   D51       -2.33955  -0.00027   0.00190   0.00080   0.00279  -2.33676
   D52       -1.10534   0.00074  -0.00239   0.04861   0.04611  -1.05923
   D53        1.88111   0.00054   0.00057   0.01198   0.01265   1.89376
   D54       -1.40672  -0.00073  -0.00024  -0.05040  -0.05072  -1.45744
   D55        1.90231  -0.00013  -0.00371  -0.00863  -0.01227   1.89004
   D56        2.77072  -0.00067   0.00225  -0.05651  -0.05440   2.71632
   D57       -0.20344  -0.00007  -0.00122  -0.01473  -0.01595  -0.21939
   D58        0.70037  -0.00083   0.00031  -0.05381  -0.05363   0.64674
   D59       -2.27379  -0.00023  -0.00316  -0.01204  -0.01518  -2.28897
   D60       -0.81485   0.00029  -0.00074   0.00472   0.00399  -0.81086
   D61        2.32437   0.00049   0.00181   0.00788   0.00970   2.33407
   D62       -2.90143  -0.00029  -0.00287   0.00429   0.00140  -2.90004
   D63        0.23779  -0.00010  -0.00032   0.00745   0.00710   0.24489
   D64        1.27767  -0.00011  -0.00106   0.00105  -0.00001   1.27767
   D65       -1.86629   0.00008   0.00148   0.00421   0.00570  -1.86059
         Item               Value     Threshold  Converged?
 Maximum Force            0.004009     0.000450     NO 
 RMS     Force            0.000986     0.000300     NO 
 Maximum Displacement     0.272349     0.001800     NO 
 RMS     Displacement     0.067531     0.001200     NO 
 Predicted change in Energy=-8.818910D-04
 GradGradGradGradGradGradGradGradGradGradGradGradGradGradGradGradGradGrad

                          Input orientation:                          
 ---------------------------------------------------------------------
 Center     Atomic      Atomic             Coordinates (Angstroms)
 Number     Number       Type             X           Y           Z
 ---------------------------------------------------------------------
      1          6           0       -0.058732   -0.824083   -0.592631
      2          6           0       -0.628425   -3.189710    1.793919
      3          6           0        0.998661   -3.776986   -1.452229
      4          6           0        1.772744   -2.559092   -0.910654
      5          6           0        0.260250   -4.305602   -0.212113
      6          6           0        0.780897   -1.922409    0.092387
      7          6           0       -0.683125   -1.940832    2.664793
      8          6           0       -2.196875   -0.211938   -1.624276
      9          7           0        0.031207   -3.087115    0.591419
     10          7           0       -1.347392   -1.133771   -0.882968
     11          8           0        0.486543    0.205753   -0.967343
     12          8           0       -1.130039   -4.255172    2.135859
     13          1           0        0.283340   -3.459514   -2.220345
     14          1           0        1.650804   -4.532560   -1.899238
     15          1           0        2.671337   -2.885300   -0.374168
     16          1           0        2.079965   -1.841300   -1.674322
     17          1           0       -0.687091   -4.805613   -0.431946
     18          1           0        0.870124   -5.022192    0.354646
     19          1           0        1.319954   -1.413781    0.896353
     20          1           0       -1.113051   -1.083682    2.134743
     21          1           0        0.317060   -1.644122    3.004195
     22          1           0       -1.295235   -2.173766    3.536372
     23          1           0       -2.097221    0.797285   -1.215164
     24          1           0       -3.236706   -0.534668   -1.535401
     25          1           0       -1.930766   -0.165926   -2.687883
     26          1           0       -1.708629   -2.022913   -0.575881
 ---------------------------------------------------------------------
                    Distance matrix (angstroms):
                    1          2          3          4          5
     1  C    0.000000
     2  C    3.408278   0.000000
     3  C    3.252173   3.678284   0.000000
     4  C    2.542774   3.671240   1.541355   0.000000
     5  C    3.516748   2.461528   1.537066   2.413689   0.000000
     6  C    1.542902   2.547048   2.423369   1.547649   2.458334
     7  C    3.499687   1.523519   4.811417   4.381479   3.841702
     8  C    2.451667   4.797001   4.790680   4.666505   4.978931
     9  N    2.555656   1.375371   2.363976   2.359657   1.477441
    10  N    1.356778   3.451017   3.579750   3.430387   3.618711
    11  O    1.224049   4.516291   4.044699   3.049901   4.579727
    12  O    4.512730   1.226274   4.199333   4.536968   2.729179
    13  H    3.116402   4.125339   1.096574   2.178159   2.179311
    14  H    4.287486   4.542855   1.093617   2.210598   2.198077
    15  H    3.427772   3.960012   2.180635   1.096220   2.803010
    16  H    2.603615   4.602421   2.228323   1.092153   3.394437
    17  H    4.034010   2.751192   2.222793   3.365532   1.093523
    18  H    4.402752   2.770405   2.198149   2.912485   1.098483
    19  H    2.113195   2.784911   3.347208   2.186785   3.273270
    20  H    2.935567   2.187779   4.957780   4.447369   4.215976
    21  H    3.708212   2.178888   4.987324   4.275772   4.175085
    22  H    4.516553   2.124364   5.720001   5.416366   4.584255
    23  H    2.678025   5.206541   5.528530   5.131728   5.709924
    24  H    3.327476   4.993670   5.334592   5.439043   5.310342
    25  H    2.885786   5.561107   4.811251   4.754132   5.297821
    26  H    2.039518   2.853806   3.342780   3.538293   3.036360
                    6          7          8          9         10
     6  C    0.000000
     7  C    2.959894   0.000000
     8  C    3.839241   4.865864   0.000000
     9  N    1.472280   2.474493   4.259143   0.000000
    10  N    2.470401   3.698541   1.456343   2.808898   0.000000
    11  O    2.395568   4.378169   2.794057   3.671518   2.272611
    12  O    3.642697   2.415713   5.623567   2.257908   4.347839
    13  H    2.821168   5.206248   4.129590   2.847502   3.139577
    14  H    3.396498   5.744097   5.792064   3.303902   4.644755
    15  H    2.172233   4.623821   5.692901   2.818399   4.413266
    16  H    2.194406   5.145142   4.576973   3.298946   3.587982
    17  H    3.277619   4.218623   4.980256   2.125197   3.757904
    18  H    3.112137   4.152606   6.038308   2.122349   4.644232
    19  H    1.093455   2.723507   4.490666   2.133987   3.218559
    20  H    2.908904   1.095671   4.008097   2.775774   3.027211
    21  H    2.961623   1.097087   5.458366   2.825850   4.259212
    22  H    4.029211   1.090224   5.594106   3.356547   4.540361
    23  H    4.170131   4.954899   1.093542   4.783567   2.097993
    24  H    4.551555   5.112700   1.092384   4.660215   2.086648
    25  H    4.262423   5.775642   1.097356   4.810042   2.129499
    26  H    2.579617   3.400053   2.148755   2.349925   1.007654
                   11         12         13         14         15
    11  O    0.000000
    12  O    5.669484   0.000000
    13  H    3.878851   4.648358   0.000000
    14  H    4.967448   4.908364   1.767624   0.000000
    15  H    3.831422   4.756810   3.072560   2.465926   0.000000
    16  H    2.688724   5.536098   2.478834   2.734528   1.769197
    17  H    5.174732   2.663234   2.439691   2.773672   3.869106
    18  H    5.406126   2.785981   3.068691   2.434994   2.888225
    19  H    2.605921   3.951246   3.869547   4.201377   2.367663
    20  H    3.720791   3.171535   5.153764   5.983866   4.884880
    21  H    4.384504   3.108968   5.531058   5.845134   4.300753
    22  H    5.396323   2.514155   6.106132   6.617319   5.615363
    23  H    2.662172   6.139391   4.979739   6.551557   6.083409
[...]
 637,-0.00008609,-0.00075779,0.00012230,0.00096807,-0.00857563,-0.01356
 987,-0.00694687,-0.00061381,0.00297775,-0.00058499,0.00127988,0.000589
 96,0.00316260,-0.00053243,-0.00066179,0.00113792,0.00007436,0.00000177
 ,0.00007747,0.00064225,0.00101901,0.00035751,0.00155678,-0.00028544,-0
 .00027238,-0.00013682,-0.00019226,0.00021110,0.00028199,-0.00062541,-0
 .00048790,-0.00003726,0.00008886,0.00005137,0.10360762,0.01031609,0.00
 994646,0.01885899,0.00182904,0.00019077,-0.00420141,0.00051329,-0.0014
 3285,-0.00059107,-0.00286173,-0.00451265,-0.00836867,-0.00354953,-0.00
 059375,-0.00033802,-0.05209688,-0.10062026,-0.08943613,0.00005773,0.00
 031418,-0.00031783,0.00080828,-0.00015098,-0.00108518,-0.01261677,-0.0
 1888360,-0.01494080,0.00110004,-0.00248142,0.00088014,0.00014301,-0.00
 030382,-0.00195928,-0.00041392,-0.00085023,0.00119452,-0.00005295,0.00
 000978,-0.00017869,-0.00016735,-0.00022987,-0.00036662,-0.00032770,0.0
 0024688,0.00011390,0.00034656,-0.00017986,-0.00033642,0.00027860,-0.00
 127338,-0.00065709,0.00002762,-0.00017790,0.00000706,0.05592616,0.1204
 2772,-0.00980286,-0.00847556,-0.01275911,0.00056635,-0.00079912,0.0007
 4618,0.00294272,-0.00110153,-0.00125531,-0.00747627,-0.00864528,-0.012
 66800,0.00161563,0.00097666,-0.00092886,-0.09134362,-0.09637257,-0.214
 40172,0.00186471,0.00043842,-0.00056105,-0.00048361,-0.00008970,0.0006
 4998,0.00674869,0.00838475,0.01236841,-0.00024239,0.00228179,-0.001123
 21,0.00137801,0.00139277,0.00217201,-0.00015634,0.00060521,-0.00006211
 ,0.00007254,0.00030497,0.00017433,-0.00052381,-0.00077206,-0.00021497,
 -0.00011362,0.00051364,0.00172818,0.00027646,-0.00006652,-0.00035464,-
 0.00013008,0.00040828,0.00033789,-0.00001775,0.00007725,0.00005455,0.0
 9463185,0.10035108,0.22801541,0.00086986,0.00002674,0.00074148,-0.0014
 9173,-0.00110590,-0.00161611,0.00016141,-0.00003190,-0.00006874,-0.000
 26532,-0.00008949,0.00000399,-0.00006102,0.00002922,-0.00009514,0.0002
 8029,0.00089884,0.00007722,-0.07697899,0.07243557,-0.04189752,0.000004
 79,-0.00011819,-0.00007908,-0.00000281,-0.00002837,0.00120726,-0.00056
 585,0.00005998,-0.00008366,-0.00034852,-0.00029270,-0.00009140,0.00016
 749,-0.00102337,-0.00066466,-0.00001104,-0.00000111,0.00000923,-0.0000
 2830,-0.00005110,-0.00001503,0.00005414,-0.00003371,-0.00002441,0.0000
 0323,-0.00001306,-0.00000317,-0.00001676,-0.00002535,0.00000456,-0.000
 01733,-0.00001540,0.00003301,-0.00088499,0.00016567,-0.00022041,0.0796
 2908,0.00144198,0.00046727,-0.00015595,0.00664397,-0.01846347,0.019412
 93,-0.00016172,0.00007257,0.00016640,0.00021313,0.00011825,-0.00011295
 ,-0.00051510,-0.00014089,-0.00029011,-0.00016943,-0.00020858,0.0000099
 4,0.07444002,-0.21749722,0.10827499,-0.00029164,0.00023547,-0.00013953
 ,-0.00086414,0.00152121,-0.00165105,-0.00084503,0.00006017,0.00111506,
 -0.00039578,-0.00027963,-0.00000204,-0.00089661,-0.00444539,-0.0054536
 0,0.00001054,0.00000666,-0.00004199,0.00003034,0.00002780,0.00002820,-
 0.00004650,0.00003515,0.00002476,0.00003348,0.00000012,-0.00000969,0.0
 0016155,-0.00003020,-0.00003273,-0.00009831,0.00008515,0.00016241,0.00
 022744,0.00023851,0.00017304,-0.07807567,0.23490384,0.00159609,0.00047
 881,-0.00065275,0.00925111,-0.01408139,0.01540078,-0.00008423,0.000005
 17,0.00007514,-0.00002808,-0.00002206,-0.00013193,-0.00043554,-0.00002
 866,0.00012901,0.00102996,-0.00043654,0.00025749,-0.04235947,0.1077097
 4,-0.11878127,-0.00039956,0.00027673,-0.00025573,-0.00070060,0.0009555
 5,-0.00141222,-0.00075467,0.00032803,0.00006659,-0.00046054,-0.0003903
 7,0.00002799,-0.00240127,-0.00350982,-0.00226226,-0.00000243,-0.000006
 45,-0.00002365,-0.00001209,0.00000200,0.00000820,-0.00004246,0.0000382
 2,0.00003216,0.00003272,-0.00001179,-0.00001022,0.00009982,-0.00004462
 ,-0.00008602,-0.00000255,-0.00001615,0.00003818,0.00036559,-0.00011311
 ,-0.00063012,0.04881188,-0.11829697,0.12597637,-0.00057057,-0.00016435
 ,-0.00020630,0.00523453,-0.00147222,0.00234133,-0.00008025,-0.00001719
 ,-0.00003177,0.00021647,0.00003183,0.00023394,-0.00031087,0.00016012,-
 0.00028293,-0.00020971,0.00029207,0.00068144,-0.25831431,-0.05251896,-
 0.08892620,0.00001964,-0.00000010,0.00003071,-0.00063230,-0.00078602,0
 .00027906,0.00030632,-0.00005984,-0.00017587,0.00018032,0.00013142,0.0
 0005782,0.00028715,0.00083375,-0.00119903,0.00001301,0.00000321,0.0000
 0113,0.00002414,0.00001965,-0.00001734,0.00001190,-0.00000910,-0.00001
 971,-0.00002913,0.00002805,0.00002998,0.00002804,-0.00003353,-0.000029
 31,-0.00004420,0.00006931,0.00005028,0.00027767,0.00011935,0.00036940,
 -0.00972680,-0.00270727,-0.00313497,0.28040174,0.00064191,0.00010566,0
 .00012235,-0.02833470,-0.00565926,-0.00832434,-0.00000230,-0.00000830,
 0.00006495,-0.00001879,0.00012153,-0.00014341,0.00070784,-0.00026054,0
 .00031096,0.00037365,0.00015707,-0.00012578,-0.05673884,-0.05793508,-0
 .02532980,-0.00000866,0.00001425,-0.00006524,0.00107357,-0.00030682,0.
 00024032,-0.00033080,0.00003371,0.00041795,-0.00015193,-0.00005450,-0.
 00007684,0.00415955,-0.00415424,-0.00054283,0.00001113,0.00001559,-0.0
 0001416,0.00001173,0.00001179,-0.00002593,0.00004784,-0.00002114,-0.00
 001103,0.00006523,-0.00000852,-0.00000305,-0.00006193,0.00006236,0.000
 12287,0.00000860,-0.00007666,-0.00024243,-0.00007828,0.00038151,-0.000
 14671,0.02495395,0.00774219,0.01003949,0.05926178,0.06205728,-0.000801
 55,0.00033439,-0.00002347,-0.01940005,-0.00148625,-0.00655554,-0.00012
 635,0.00002763,0.00011471,0.00024043,0.00020006,-0.00007055,0.00094719
 ,-0.00035464,0.00045921,-0.00092494,-0.00116190,-0.00073513,-0.0914778
 5,-0.02410991,-0.08577681,0.00009506,0.00000997,-0.00000809,0.00176537
 ,-0.00083136,-0.00088936,0.00048982,-0.00010387,-0.00023845,0.00025380
 ,0.00012131,0.00006434,0.00154675,-0.00114639,-0.00004383,0.00002576,0
 .00001538,-0.00000752,0.00004475,0.00007759,0.00000094,0.00001077,-0.0
 0001526,-0.00000434,0.00003514,0.00000249,0.00000311,-0.00004396,0.000
 13924,0.00007101,0.00003555,-0.00013200,-0.00026196,0.00092362,0.00059
 307,-0.00069891,-0.01489075,-0.00437999,-0.00658571,0.09856522,0.02685
 402,0.08880454,-0.00038025,0.00019217,0.00004442,-0.00249155,-0.002290
 49,0.00039320,-0.00007965,0.00004606,-0.00000214,0.00011999,0.00002893
 ,0.00007992,0.00039424,-0.00022001,-0.00000135,-0.00014741,0.00009443,
 -0.00019788,-0.15830587,-0.03471870,0.13230790,0.00003647,-0.00001658,
 -0.00000632,0.00071697,-0.00022402,0.00034091,0.00022568,-0.00012202,-
 0.00017638,0.00007883,-0.00010186,0.00005601,0.00056661,0.00023917,-0.
 00168619,0.00001566,0.00000125,-0.00000028,0.00000973,0.00002491,0.000
 01423,0.00001433,-0.00001952,-0.00002114,-0.00000988,0.00001576,0.0000
 2725,-0.00003557,0.00008363,0.00008395,-0.00002550,0.00000256,-0.00001
 872,0.00025450,0.00025416,-0.00005033,0.00920257,0.00163881,-0.0105793
 4,-0.01704357,-0.00565780,0.02264136,0.16689046,0.00011475,0.00004491,
 -0.00032735,0.02034108,0.00682193,-0.02356675,0.00000821,-0.00040748,-
 0.00011985,0.00014758,0.00008573,-0.00000350,0.00021419,0.00080480,-0.
 00110909,-0.00086534,-0.00100662,0.00038887,-0.03841504,-0.06165265,0.
 04912845,-0.00007829,0.00009786,-0.00005400,-0.00047241,-0.00533165,-0
 .00279208,-0.00009557,0.00009330,0.00032964,-0.00001884,0.00004460,0.0
 0007092,-0.00107992,0.00194323,0.00177071,0.00000750,0.00001492,-0.000
 03057,0.00010082,0.00008675,-0.00011339,-0.00001755,0.00002013,0.00001
 769,0.00001594,0.00000384,-0.00000474,-0.00000504,-0.00007067,-0.00010
 029,0.00003984,0.00003050,0.00003812,0.00029109,0.00010800,0.00041779,
 -0.01773066,-0.00386173,0.01774540,-0.00324105,-0.00203513,0.00535485,
 0.04065620,0.06435856,-0.00004225,-0.00010824,0.00025901,0.01381773,0.
 00664350,-0.01846244,0.00017717,-0.00037946,-0.00018444,-0.00012557,-0
 .00004115,0.00009215,0.00035983,0.00081995,-0.00047380,-0.00053536,-0.
 00040418,0.00040144,0.13102957,0.04421341,-0.20582240,0.00012172,-0.00
 011378,0.00002535,0.00021238,-0.00474233,-0.00104515,-0.00003701,0.000
 04101,-0.00026783,-0.00001509,0.00011135,-0.00007543,-0.00221696,0.001
 97754,0.00310562,-0.00000057,0.00001555,-0.00002373,0.00004608,0.00004
 419,-0.00012635,0.00002621,-0.00001503,-0.00000720,0.00001045,0.000010
 15,0.00000011,-0.00001285,-0.00006095,-0.00008200,0.00004481,-0.000072
 95,-0.00001113,0.00000606,0.00010090,-0.00012492,0.00915126,0.00183070
 ,-0.01075524,-0.00876868,-0.00301660,0.01210055,-0.14332978,-0.0469745
 1,0.22141255,0.00212082,0.00367690,-0.00175321,0.00014284,-0.00004825,
 -0.00009430,0.00005206,0.00001174,0.00003314,-0.00002768,0.00000284,0.
 00010008,0.00003082,-0.00008210,0.00002484,0.00015528,0.00003529,-0.00
 019379,-0.00000290,0.00000364,0.00002260,-0.13245614,-0.12707437,0.040
 46914,-0.00053811,-0.00031342,0.00011719,0.01319006,0.02210437,-0.0071
 0668,-0.00191376,-0.00182713,0.00083279,-0.00011563,-0.00011586,0.0001
 0519,-0.00000087,0.00001223,-0.00001465,-0.00001432,-0.00003288,-0.000
 00994,0.00004500,-0.00006355,-0.00001854,-0.00008376,0.00005852,0.0000
 6464,0.00000847,-0.00003938,0.00001940,0.00000098,-0.00001694,-0.00000
 049,0.00002991,-0.00005276,0.00000747,0.00001916,0.00000774,0.00000395
 ,-0.00000239,0.00000773,-0.00002332,-0.00001198,-0.00000794,0.00000081
 ,0.13907900,-0.00441482,-0.00305814,0.00134203,0.00018123,0.00012752,-
 0.00038879,-0.00000770,-0.00001436,0.00000688,-0.00001582,0.00002418,0
 .00000958,-0.00006181,0.00014852,0.00007960,-0.00030713,-0.00026928,0.
 00012156,-0.00000059,0.00000829,0.00000348,-0.11558171,-0.22766746,0.0
 5417371,0.00057400,-0.00023390,0.00052701,-0.00710633,-0.02426812,0.01
 005699,-0.00103317,0.00260850,-0.00249029,-0.00006693,-0.00010819,0.00
 006324,-0.00001727,-0.00001128,0.00001068,0.00001375,0.00000607,-0.000
 00642,0.00000012,0.00002171,-0.00001325,0.00005570,-0.00000622,-0.0000
 3144,-0.00000890,0.00002196,-0.00001812,0.00001151,-0.00002611,-0.0000
 1374,0.00004004,0.00005158,0.00000795,-0.00000360,-0.00001183,-0.00001
 350,0.00000093,0.00000374,0.00001303,0.00000161,0.00000127,0.00000929,
 0.12682606,0.25178205,0.00223993,0.00320384,0.00059421,-0.00003855,-0.
 00006263,0.00024135,0.00004381,-0.00000807,0.00000794,-0.00002255,-0.0
 0004762,0.00003708,0.00000461,-0.00009430,-0.00004375,0.00018341,0.000
 28211,0.00002574,-0.00002618,-0.00000822,-0.00003023,0.03481037,0.0509
 9552,-0.06830217,-0.00044117,0.00006288,-0.00024645,0.00758554,0.01845
 538,-0.00765116,0.00050139,-0.00259355,-0.00036676,-0.00000500,0.00000
 295,-0.00002640,-0.00001687,-0.00000614,-0.00000583,-0.00001301,-0.000
 01473,-0.00000260,0.00000948,-0.00001902,-0.00000761,-0.00002857,0.000
 02665,0.00004745,0.00001534,-0.00001207,0.00000885,0.00000181,0.000017
 12,0.00000542,-0.00001482,-0.00003611,-0.00001514,0.00003436,0.0000435
 2,0.00002208,-0.00000918,0.00001008,-0.00001798,0.00000280,-0.00000906
 ,0.00000254,-0.03749468,-0.06475134,0.07163757,0.00235974,0.00444697,0
 .00135090,-0.00036641,-0.00011604,0.00084106,-0.00001341,-0.00000714,0
 .00004379,0.00009637,-0.00003414,-0.00004721,0.00007406,-0.00014456,-0
 .00005564,-0.00039869,-0.00100821,-0.00042893,0.00001521,-0.00000986,-
 0.00013120,-0.19598442,0.04840113,0.11837258,0.00004183,0.00019246,-0.
 00053037,-0.02244500,0.00905560,0.00276652,-0.00080217,-0.00081150,-0.
 00007958,0.00021460,0.00023574,-0.00028011,0.00000054,-0.00002369,-0.0
 0006313,-0.00001405,0.00004411,-0.00000415,-0.00004708,0.00006097,0.00
 001732,0.00004507,-0.00000923,-0.00001119,0.00001905,0.00001513,0.0000
 0785,-0.00001309,0.00002964,-0.00000446,-0.00020583,0.00029128,-0.0001
 5262,-0.00005475,0.00004432,0.00010318,0.00002480,-0.00001960,0.000022
 30,0.00001177,0.00001698,-0.00003529,-0.01125135,0.00521609,0.01020481
 ,0.21815273,-0.00402795,-0.00583748,-0.00005390,0.00027885,0.00013807,
 -0.00038907,0.00002141,0.00000685,-0.00005926,-0.00014594,0.00004660,0
 .00000839,-0.00000960,0.00007309,0.00003382,0.00023926,0.00111141,0.00
 095158,-0.00005418,-0.00000376,0.00004797,0.04682294,-0.06745211,-0.04
 135984,-0.00018128,-0.00007179,0.00022124,0.02619116,-0.00786441,-0.00
 526777,0.00028719,0.00234195,-0.00202041,-0.00018531,-0.00020131,0.000
 13860,0.00000065,0.00000604,0.00003779,0.00000401,-0.00003135,0.000004
 76,0.00001940,-0.00002662,-0.00000934,-0.00001384,-0.00000841,-0.00000
 719,-0.00000632,-0.00002347,-0.00000875,0.00000308,-0.00001592,0.00000
 174,0.00026312,-0.00023255,0.00015171,0.00007780,0.00001549,-0.0000537
 4,-0.00002798,0.00001598,-0.00002816,0.00000395,-0.00001881,0.00003692
 ,-0.01914329,0.01111900,0.01689949,-0.06208531,0.07043190,0.00027885,0
 .00400586,-0.00022061,-0.00006920,0.00007175,0.00017306,-0.00004252,0.
 00002259,-0.00000955,0.00011551,-0.00007020,0.00004785,0.00003873,-0.0
 0003435,-0.00002562,-0.00025136,-0.00093432,-0.00095007,0.00001665,0.0
 0007537,-0.00004037,0.12267327,-0.04246763,-0.14870059,0.00012746,-0.0
 0002211,-0.00004324,-0.02248514,0.00692174,0.01389295,-0.00006485,-0.0
 0126507,0.00080498,0.00002284,0.00000973,-0.00006547,0.00000877,0.0000
 0323,-0.00001113,0.00000522,0.00001317,0.00000677,0.00000789,0.0000043
 1,0.00001031,-0.00001682,0.00000829,0.00000811,-0.00000035,0.00001300,
 -0.00000388,-0.00000551,0.00000422,0.00000797,-0.00024885,0.00023097,-
 0.00017977,-0.00005979,-0.00005993,-0.00003220,0.00001616,-0.00002735,
 0.00002969,0.00001212,-0.00000609,0.00000316,0.00393044,-0.00265172,-0
 .00460865,-0.12565369,0.04218822,0.15543199,0.00298990,0.00207147,-0.0
 0342320,-0.00017299,-0.00019126,0.00048942,-0.00014304,0.00002078,-0.0
 0011062,-0.00007011,0.00010827,-0.00043579,0.00008357,-0.00016781,-0.0
 0012687,-0.00069532,-0.00004693,0.00110413,0.00002683,-0.00005336,-0.0
 0004331,-0.07984645,-0.04039684,-0.06900939,-0.00000654,0.00014623,-0.
 00030325,-0.01586737,-0.00415886,-0.02094161,-0.00085249,-0.00063616,0
 .00064421,0.00012397,0.00022215,-0.00014393,0.00004744,-0.00000841,0.0
 0002645,0.00002392,0.00003110,0.00004476,-0.00010270,0.00012200,0.0001
 2057,0.00002172,-0.00005107,-0.00002381,0.00002282,0.00003737,-0.00000
 062,-0.00001487,0.00003772,0.00002808,0.00003507,-0.00002500,-0.000009
 19,-0.00004550,0.00007400,0.00007919,-0.00000109,-0.00000041,-0.000000
 79,-0.00000441,0.00002985,-0.00003073,-0.00496905,-0.00720846,-0.01506
 584,0.01041451,0.01150397,0.02094611,0.08876115,-0.00315803,-0.0037160
 8,0.00324341,0.00007922,0.00005121,-0.00021012,0.00005317,0.00002330,0
 .00006483,0.00018614,-0.00012215,0.00039896,0.00003384,0.00003419,0.00
 003176,0.00083346,-0.00042183,-0.00151248,-0.00000690,0.00001768,0.000
 06085,-0.04355003,-0.10547200,-0.10032862,-0.00018246,0.00004823,0.000
 02524,0.01746245,0.01076269,0.02476060,-0.00005511,0.00268278,-0.00069
 907,-0.00007300,-0.00007846,0.00007584,0.00001534,0.00000031,-0.000045
 40,-0.00002244,-0.00001137,-0.00001912,0.00010489,-0.00009385,-0.00010
 353,-0.00003629,0.00003761,-0.00000257,-0.00001352,-0.00004698,0.00001
 321,-0.00000843,-0.00001331,-0.00001230,-0.00010588,0.00007001,-0.0000
 1324,0.00004060,-0.00003980,-0.00003589,-0.00000507,-0.00000168,0.0000
 0053,0.00000252,-0.00001299,0.00001857,-0.00616247,-0.00981671,-0.0232
 1922,-0.00351098,-0.00339030,-0.00573481,0.03868195,0.10897763,0.00489
 987,0.00250575,-0.00203951,-0.00019828,-0.00028042,0.00034920,-0.00007
 921,0.00001312,-0.00001430,-0.00000583,0.00002155,-0.00031193,0.000004
 40,-0.00017951,-0.00010748,-0.00047880,-0.00000566,0.00082139,0.000020
 35,-0.00004239,0.00000330,-0.07048081,-0.09818805,-0.22528773,0.000026
 05,0.00014934,-0.00025160,-0.01556372,0.00228695,-0.01161527,-0.000603
 77,-0.00183014,0.00038922,0.00016373,0.00027873,-0.00009684,0.00001936
 ,-0.00005264,-0.00002625,0.00000645,0.00003189,0.00002260,-0.00007299,
 0.00008935,0.00007676,0.00004290,-0.00003645,-0.00000720,0.00002781,0.
 00005891,0.00000102,0.00000529,0.00004055,0.00001687,0.00003019,0.0000
 2065,-0.00003477,-0.00002686,0.00005077,0.00005124,-0.00000568,0.00001
 090,0.00000099,-0.00000446,0.00002186,-0.00002510,0.00299504,0.0031082
 4,0.00967258,-0.00611301,-0.01094349,-0.01605849,0.08573796,0.10298790
 ,0.24486419,-0.00221398,-0.03294041,0.01804965,0.00265163,0.00178819,-
 0.00532162,-0.00019273,-0.00007964,-0.00014171,-0.00017016,0.00006791,
 -0.00013894,-0.00059068,0.00192304,0.00072094,-0.00360118,-0.00116275,
 0.00032984,-0.00004859,0.00006929,0.00020930,0.01174760,0.02073424,-0.
 00667925,0.00236959,-0.00052176,0.00419062,-0.11561200,-0.11997290,0.0
 3324750,-0.00850830,-0.00135231,-0.00324187,-0.00138654,-0.00172741,0.
 00106574,0.00002056,0.00004154,0.00020074,0.00015017,-0.00001911,0.000
 01245,0.00001058,0.00005521,0.00000490,0.00018998,-0.00009308,-0.00018
 177,-0.00011672,-0.00010715,-0.00024316,-0.00000865,-0.00028767,-0.000
 06296,0.00029119,-0.00001229,0.00024907,0.00010771,0.00009989,0.000024
 32,-0.00006053,0.00007952,0.00004666,-0.00000217,0.00004365,0.00014607
 ,-0.00348645,0.00291322,-0.00246125,0.00012599,0.00016420,0.00069807,0
 .00024105,-0.00060298,-0.00034597,0.11809263,-0.00897888,-0.00713860,-
 0.00254274,-0.00062486,0.00022988,0.00432188,0.00021909,0.00007401,-0.
 00011822,0.00015265,-0.00013705,0.00062150,0.00133789,-0.00106543,-0.0
 0002815,0.00164660,-0.00004393,-0.00096453,-0.00005852,0.00013676,-0.0
 0030074,-0.00566806,-0.01010553,0.00190912,-0.00012881,-0.00079825,-0.
 00204587,-0.12284586,-0.33860798,0.14002269,0.00247905,0.00514042,0.00
 203374,0.00018920,0.00024834,-0.00093050,0.00008394,0.00002902,-0.0000
 9335,-0.00014092,-0.00005187,0.00000562,0.00016866,-0.00015227,-0.0001
 9980,-0.00018323,0.00000084,0.00006214,0.00003353,-0.00043806,0.000021
 82,-0.00018461,0.00001567,-0.00006850,-0.00034457,-0.00006229,-0.00000
 301,-0.00004880,-0.00055110,-0.00051810,0.00009121,-0.00020078,0.00000
 618,0.00008488,-0.00016259,0.00005615,0.00223329,-0.00043279,0.0008825
 3,-0.00027015,-0.00012810,-0.00029887,-0.00014229,0.00053185,-0.000117
 69,0.13089957,0.35366983,0.00718708,-0.00809606,-0.00211432,-0.0011621
 1,0.00221449,-0.00258854,0.00039937,-0.00022309,0.00065934,0.00031900,
 0.00014334,0.00045529,0.00036643,0.00087241,0.00144877,-0.00141217,-0.
 00189940,-0.00157917,0.00019452,0.00014381,-0.00028171,0.00674652,0.00
 900981,-0.00614083,0.00119056,-0.00026524,-0.00078517,0.03401730,0.140
 00037,-0.06845805,-0.00549884,0.00111124,0.00631658,0.00008799,-0.0005
 9735,-0.00010203,0.00002931,0.00000750,-0.00066149,-0.00014543,0.00008
 633,-0.00027796,-0.00000776,-0.00010544,-0.00015493,0.00020683,-0.0000
 5051,-0.00012323,-0.00014639,-0.00051491,-0.00005088,-0.00001255,-0.00
 044015,-0.00034126,-0.00025668,0.00057516,-0.00023433,-0.00023752,-0.0
 0066622,-0.00046590,0.00015051,-0.00009841,0.00026855,0.00007022,-0.00
 007304,0.00008467,-0.00201713,0.00084534,-0.00097807,-0.00013972,-0.00
 052132,0.00053279,0.00044804,0.00025465,-0.00039290,-0.04037739,-0.141
 71330,0.07596478\\-0.00000125,-0.00000118,-0.00000138,0.00000156,0.000
 00100,-0.00000751,0.00000044,0.00000417,0.00000042,0.00000246,0.000000
 85,-0.00000170,0.00000063,-0.00000036,0.00000268,-0.00000559,-0.000005
 06,-0.00000019,-0.00000129,0.00000176,-0.00000018,0.00000079,0.0000001
 9,-0.00000349,0.00000752,0.00000057,0.00000822,-0.00000095,-0.00000451
 ,0.00000162,-0.00000202,0.00000188,-0.00000213,-0.00000050,-0.00000145
 ,0.00000210,0.00000122,-0.00000108,0.00000002,0.00000179,0.00000079,0.
 00000167,-0.00000015,0.00000114,0.00000104,-0.00000029,0.00000100,0.00
 000026,0.00000048,0.00000019,-0.00000050,-0.00000065,0.00000081,0.0000
 0130,-0.00000039,0.00000089,-0.00000020,-0.00000063,-0.00000011,0.0000
 0020,-0.00000033,0.00000009,0.00000024,-0.00000068,0.00000040,-0.00000
 018,-0.00000319,0.00000209,-0.00000198,-0.00000003,-0.00000158,-0.0000
 0054,0.00000161,-0.00000207,0.00000067,-0.00000056,-0.00000043,-0.0000
 0047\\\@


 ONE OF THE BENEFITS OF A COLLEGE EDUCATION
 IS TO SHOW THE BOY ITS LITTLE AVAIL 
                                    EMERSON IN 'CULTURE'
 Job cpu time:  0 days  1 hours 36 minutes 45.3 seconds.
 File lengths (MBytes):  RWF=    148 Int=      0 D2E=      0 Chk=      4 Scr=      1
 Normal termination of Gaussian 09 at Fri Feb 16 18:08:30 2018.
