 Entering Gaussian System, Link 0=g09
 Initial command:
 /home/fb_chem/chemsoft/lx24-amd64/Gaussian_09_C.01_NBO_3.1_64_istanbul-64/g09/l1.exe /local/2659144.1.parallel_long/Gau-21311.inp -scrdir=/local/2659144.1.parallel_long/
 Entering Link 1 = /home/fb_chem/chemsoft/lx24-amd64/Gaussian_09_C.01_NBO_3.1_64_istanbul-64/g09/l1.exe PID=     21322.
  
 Copyright (c) 1988,1990,1992,1993,1995,1998,2003,2009,2011,
            Gaussian, Inc.  All Rights Reserved.
  
 This is part of the Gaussian(R) 09 program.  It is based on
 the Gaussian(R) 03 system (copyright 2003, Gaussian, Inc.),
 the Gaussian(R) 98 system (copyright 1998, Gaussian, Inc.),
 the Gaussian(R) 94 system (copyright 1995, Gaussian, Inc.),
 the Gaussian 92(TM) system (copyright 1992, Gaussian, Inc.),
 the Gaussian 90(TM) system (copyright 1990, Gaussian, Inc.),
 the Gaussian 88(TM) system (copyright 1988, Gaussian, Inc.),
 the Gaussian 86(TM) system (copyright 1986, Carnegie Mellon
 University), and the Gaussian 82(TM) system (copyright 1983,
 Carnegie Mellon University). Gaussian is a federally registered
 trademark of Gaussian, Inc.
  
 This software contains proprietary and confidential information,
 including trade secrets, belonging to Gaussian, Inc.
  
 This software is provided under written license and may be
 used, copied, transmitted, or stored only in accord with that
 written license.
  
 The following legend is applicable only to US Government
 contracts under FAR:
  
                    RESTRICTED RIGHTS LEGEND
  
 Use, reproduction and disclosure by the US Government is
 subject to restrictions as set forth in subparagraphs (a)
 and (c) of the Commercial Computer Software - Restricted
 Rights clause in FAR 52.227-19.
  
 Gaussian, Inc.
 340 Quinnipiac St., Bldg. 40, Wallingford CT 06492
  
  
 ---------------------------------------------------------------
 Warning -- This program may not be used in any manner that
 competes with the business of Gaussian, Inc. or will provide
 assistance to any competitor of Gaussian, Inc.  The licensee
 of this program is prohibited from giving any competitor of
 Gaussian, Inc. access to this program.  By using this program,
 the user acknowledges that Gaussian, Inc. is engaged in the
 business of creating and licensing software in the field of
 computational chemistry and represents and warrants to the
 licensee that it is not a competitor of Gaussian, Inc. and that
 it will not use this program in any manner prohibited above.
 ---------------------------------------------------------------
  

 Cite this work as:
 Gaussian 09, Revision C.01,
 M. J. Frisch, G. W. Trucks, H. B. Schlegel, G. E. Scuseria, 
 M. A. Robb, J. R. Cheeseman, G. Scalmani, V. Barone, B. Mennucci, 
 G. A. Petersson, H. Nakatsuji, M. Caricato, X. Li, H. P. Hratchian, 
 A. F. Izmaylov, J. Bloino, G. Zheng, J. L. Sonnenberg, M. Hada, 
 M. Ehara, K. Toyota, R. Fukuda, J. Hasegawa, M. Ishida, T. Nakajima, 
 Y. Honda, O. Kitao, H. Nakai, T. Vreven, J. A. Montgomery, Jr., 
 J. E. Peralta, F. Ogliaro, M. Bearpark, J. J. Heyd, E. Brothers, 
 K. N. Kudin, V. N. Staroverov, T. Keith, R. Kobayashi, J. Normand, 
 K. Raghavachari, A. Rendell, J. C. Burant, S. S. Iyengar, J. Tomasi, 
 M. Cossi, N. Rega, J. M. Millam, M. Klene, J. E. Knox, J. B. Cross, 
 V. Bakken, C. Adamo, J. Jaramillo, R. Gomperts, R. E. Stratmann, 
 O. Yazyev, A. J. Austin, R. Cammi, C. Pomelli, J. W. Ochterski, 
 R. L. Martin, K. Morokuma, V. G. Zakrzewski, G. A. Voth, 
 P. Salvador, J. J. Dannenberg, S. Dapprich, A. D. Daniels, 
 O. Farkas, J. B. Foresman, J. V. Ortiz, J. Cioslowski, 
 and D. J. Fox, Gaussian, Inc., Wallingford CT, 2010.
 
 ******************************************
 Gaussian 09:  AM64L-G09RevC.01 23-Sep-2011
                24-Aug-2018 
 ******************************************
 %nprocs=8
 Will use up to    8 processors via shared memory.
 %chk=frag46-conf0.chk
 ---------------------------------------------------------
 #B3LYP/6-31G* Integral=(Grid=UltraFine) freq Opt pop=none
 ---------------------------------------------------------
 1/14=-1,18=20,19=15,26=3,38=1/1,3;
 2/9=110,12=2,17=6,18=5,40=1/2;
 3/5=1,6=6,7=1,11=2,16=1,25=1,30=1,71=1,74=-5,75=-5/1,2,3;
 4//1;
 5/5=2,38=5/2;
 7//1,2,3,16;
 1/14=-1,18=20,19=15/3(2);
 2/9=110/2;
 99//99;
 2/9=110/2;
 3/5=1,6=6,7=1,11=2,16=1,25=1,30=1,71=1,74=-5,75=-5/1,2,3;
 4/5=5,16=3/1;
 5/5=2,38=5/2;
 7//1,2,3,16;
 1/14=-1,18=20,19=15/3(-5);
 2/9=110/2;
 99/9=1/99;
 -----------------------------
 Optimization for frag46-conf0
 -----------------------------
 Charge =  0 Multiplicity = 1
 Symbolic Z-Matrix:
 N                     1.13712   0.03166  -0.11497 
 C                     2.50059  -0.01153  -0.03912 
 O                     3.1129   -1.03406  -0.32228 
 C                     3.20756   1.21613   0.4096 
 C                     2.63673   2.48932   0.2734 
 C                     3.35855   3.62457   0.64853 
 C                     4.6567    3.49329   1.1416 
 C                     5.22425   2.22632   1.27474 
 Cl                    6.83624   2.07542   1.85784 
 C                     4.50498   1.08681   0.92101 
 H                     0.67065  -0.8289   -0.37295 
 H                     0.57829   0.76741   0.29052 
 H                     1.64904   2.61953  -0.1588 
 H                     2.91789   4.61233   0.53515 
 H                     5.22544   4.38115   1.40659 
 H                     4.95359   0.10127   1.02749 
 

 GradGradGradGradGradGradGradGradGradGradGradGradGradGradGradGradGradGrad
 Berny optimization.
 Initialization pass.
                           ----------------------------
                           !    Initial Parameters    !
                           ! (Angstroms and Degrees)  !
 --------------------------                            --------------------------
 ! Name  Definition              Value          Derivative Info.                !
 --------------------------------------------------------------------------------
 ! R1    R(1,2)                  1.3663         estimate D2E/DX2                !
 ! R2    R(1,11)                 1.0123         estimate D2E/DX2                !
 ! R3    R(1,12)                 1.009          estimate D2E/DX2                !
 ! R4    R(2,3)                  1.225          estimate D2E/DX2                !
 ! R5    R(2,4)                  1.486          estimate D2E/DX2                !
 ! R6    R(4,5)                  1.4019         estimate D2E/DX2                !
 ! R7    R(4,10)                 1.4006         estimate D2E/DX2                !
 ! R8    R(5,6)                  1.3966         estimate D2E/DX2                !
 ! R9    R(5,13)                 1.0859         estimate D2E/DX2                !
 ! R10   R(6,7)                  1.3948         estimate D2E/DX2                !
 ! R11   R(6,14)                 1.0875         estimate D2E/DX2                !
 ! R12   R(7,8)                  1.3946         estimate D2E/DX2                !
 ! R13   R(7,15)                 1.0872         estimate D2E/DX2                !
 ! R14   R(8,9)                  1.7208         estimate D2E/DX2                !
 ! R15   R(8,10)                 1.3932         estimate D2E/DX2                !
 ! R16   R(10,16)                1.0881         estimate D2E/DX2                !
 ! A1    A(2,1,11)             116.5612         estimate D2E/DX2                !
 ! A2    A(2,1,12)             123.6046         estimate D2E/DX2                !
 ! A3    A(11,1,12)            117.8464         estimate D2E/DX2                !
 ! A4    A(1,2,3)              120.8217         estimate D2E/DX2                !
 ! A5    A(1,2,4)              117.7376         estimate D2E/DX2                !
 ! A6    A(3,2,4)              121.438          estimate D2E/DX2                !
 ! A7    A(2,4,5)              121.8177         estimate D2E/DX2                !
 ! A8    A(2,4,10)             118.3387         estimate D2E/DX2                !
 ! A9    A(5,4,10)             119.7705         estimate D2E/DX2                !
 ! A10   A(4,5,6)              120.1107         estimate D2E/DX2                !
 ! A11   A(4,5,13)             121.191          estimate D2E/DX2                !
 ! A12   A(6,5,13)             118.6533         estimate D2E/DX2                !
 ! A13   A(5,6,7)              119.9639         estimate D2E/DX2                !
 ! A14   A(5,6,14)             120.0574         estimate D2E/DX2                !
 ! A15   A(7,6,14)             119.9638         estimate D2E/DX2                !
 ! A16   A(6,7,8)              119.8673         estimate D2E/DX2                !
 ! A17   A(6,7,15)             119.7466         estimate D2E/DX2                !
 ! A18   A(8,7,15)             120.3803         estimate D2E/DX2                !
 ! A19   A(7,8,9)              119.5523         estimate D2E/DX2                !
 ! A20   A(7,8,10)             120.5776         estimate D2E/DX2                !
 ! A21   A(9,8,10)             119.8629         estimate D2E/DX2                !
 ! A22   A(4,10,8)             119.6987         estimate D2E/DX2                !
 ! A23   A(4,10,16)            120.0866         estimate D2E/DX2                !
 ! A24   A(8,10,16)            120.2087         estimate D2E/DX2                !
 ! D1    D(11,1,2,3)             2.6979         estimate D2E/DX2                !
 ! D2    D(11,1,2,4)          -176.7187         estimate D2E/DX2                !
 ! D3    D(12,1,2,3)           166.2765         estimate D2E/DX2                !
 ! D4    D(12,1,2,4)           -13.1401         estimate D2E/DX2                !
 ! D5    D(1,2,4,5)            -24.2318         estimate D2E/DX2                !
 ! D6    D(1,2,4,10)           158.8886         estimate D2E/DX2                !
 ! D7    D(3,2,4,5)            156.3555         estimate D2E/DX2                !
 ! D8    D(3,2,4,10)           -20.5242         estimate D2E/DX2                !
 ! D9    D(2,4,5,6)           -176.9443         estimate D2E/DX2                !
 ! D10   D(2,4,5,13)             0.5822         estimate D2E/DX2                !
 ! D11   D(10,4,5,6)            -0.1084         estimate D2E/DX2                !
 ! D12   D(10,4,5,13)          177.4182         estimate D2E/DX2                !
 ! D13   D(2,4,10,8)           176.1469         estimate D2E/DX2                !
 ! D14   D(2,4,10,16)           -2.9612         estimate D2E/DX2                !
 ! D15   D(5,4,10,8)            -0.7985         estimate D2E/DX2                !
 ! D16   D(5,4,10,16)         -179.9066         estimate D2E/DX2                !
 ! D17   D(4,5,6,7)              0.9201         estimate D2E/DX2                !
 ! D18   D(4,5,6,14)           179.5159         estimate D2E/DX2                !
 ! D19   D(13,5,6,7)          -176.6688         estimate D2E/DX2                !
 ! D20   D(13,5,6,14)            1.927          estimate D2E/DX2                !
 ! D21   D(5,6,7,8)             -0.8211         estimate D2E/DX2                !
 ! D22   D(5,6,7,15)           178.3054         estimate D2E/DX2                !
 ! D23   D(14,6,7,8)          -179.4182         estimate D2E/DX2                !
 ! D24   D(14,6,7,15)           -0.2917         estimate D2E/DX2                !
 ! D25   D(6,7,8,9)            178.9308         estimate D2E/DX2                !
 ! D26   D(6,7,8,10)            -0.0922         estimate D2E/DX2                !
 ! D27   D(15,7,8,9)            -0.1901         estimate D2E/DX2                !
 ! D28   D(15,7,8,10)         -179.2131         estimate D2E/DX2                !
 ! D29   D(7,8,10,4)             0.9026         estimate D2E/DX2                !
 ! D30   D(7,8,10,16)         -179.9904         estimate D2E/DX2                !
 ! D31   D(9,8,10,4)          -178.1174         estimate D2E/DX2                !
 ! D32   D(9,8,10,16)            0.9896         estimate D2E/DX2                !
 --------------------------------------------------------------------------------
 Trust Radius=3.00D-01 FncErr=1.00D-07 GrdErr=1.00D-06
 Number of steps in this run=     82 maximum allowed number of steps=    100.
 GradGradGradGradGradGradGradGradGradGradGradGradGradGradGradGradGradGrad

                          Input orientation:                          
 ---------------------------------------------------------------------
 Center     Atomic      Atomic             Coordinates (Angstroms)
 Number     Number       Type             X           Y           Z
 ---------------------------------------------------------------------
      1          7           0        1.137125    0.031655   -0.114973
      2          6           0        2.500587   -0.011528   -0.039119
      3          8           0        3.112902   -1.034056   -0.322284
      4          6           0        3.207558    1.216134    0.409604
      5          6           0        2.636726    2.489321    0.273400
      6          6           0        3.358546    3.624571    0.648529
      7          6           0        4.656698    3.493289    1.141601
      8          6           0        5.224246    2.226325    1.274743
      9         17           0        6.836243    2.075424    1.857837
     10          6           0        4.504982    1.086807    0.921013
     11          1           0        0.670651   -0.828900   -0.372951
     12          1           0        0.578290    0.767414    0.290523
     13          1           0        1.649035    2.619528   -0.158798
     14          1           0        2.917885    4.612325    0.535151
     15          1           0        5.225438    4.381151    1.406586
     16          1           0        4.953586    0.101268    1.027492
 ---------------------------------------------------------------------
                    Distance matrix (angstroms):
                    1          2          3          4          5
     1  N    0.000000
     2  C    1.366253   0.000000
     3  O    2.254421   1.225021   0.000000
     4  C    2.442307   1.486040   2.368117   0.000000
     5  C    2.905127   2.523975   3.604965   1.401929   0.000000
     6  C    4.292632   3.798706   4.765042   2.424964   1.396616
     7  C    5.094044   4.280965   5.002312   2.796652   2.417025
     8  C    4.842773   3.761986   4.199805   2.415778   2.786955
     9  Cl   6.367803   5.172207   5.318371   4.000389   4.507515
    10  C    3.678189   2.479071   2.825197   1.400563   2.424218
    11  H    1.012277   2.031798   2.451376   3.351187   3.910731
    12  H    1.008992   2.100152   3.169398   2.669940   2.683732
    13  H    2.638382   2.768017   3.939329   2.172922   1.085947
    14  H    4.957450   4.678028   5.714443   3.410834   2.157478
    15  H    6.160160   5.367542   6.064345   3.883703   3.400671
    16  H    3.984400   2.677235   2.549309   2.161787   3.411640
                    6          7          8          9         10
     6  C    0.000000
     7  C    1.394831   0.000000
     8  C    2.414141   1.394646   0.000000
     9  Cl   3.994579   2.696989   1.720843   0.000000
    10  C    2.798001   2.421329   1.393186   2.699959   0.000000
    11  H    5.301094   6.071553   5.725777   7.171195   4.477318
    12  H    4.002666   4.978769   4.968100   6.582502   3.989792
    13  H    2.141101   3.391243   3.871923   5.591957   3.416381
    14  H    1.087518   2.154877   3.399897   4.851689   3.885492
    15  H    2.152290   1.087190   2.158856   2.848631   3.406985
    16  H    3.886055   3.406900   2.156445   2.851520   1.088057
                   11         12         13         14         15
    11  H    0.000000
    12  H    1.731169   0.000000
    13  H    3.590927   2.186026   0.000000
    14  H    5.956647   4.507426   2.462273   0.000000
    15  H    7.145451   5.991717   4.283036   2.477426   0.000000
    16  H    4.601085   4.486656   4.320760   4.973541   4.305231
                   16
    16  H    0.000000
 Stoichiometry    C7H6ClNO
 Framework group  C1[X(C7H6ClNO)]
 Deg. of freedom    42
 Full point group                 C1      NOp   1
 Largest Abelian subgroup         C1      NOp   1
 Largest concise Abelian subgroup C1      NOp   1
                         Standard orientation:                         
 ---------------------------------------------------------------------
 Center     Atomic      Atomic             Coordinates (Angstroms)
 Number     Number       Type             X           Y           Z
 ---------------------------------------------------------------------
      1          7           0       -3.347842    0.110869    0.321439
      2          6           0       -2.231982   -0.589165   -0.041127
      3          8           0       -2.309928   -1.764908   -0.376136
      4          6           0       -0.926979    0.120552   -0.001346
      5          6           0       -0.841098    1.516034   -0.104598
      6          6           0        0.407474    2.141411   -0.127098
      7          6           0        1.571523    1.375368   -0.066086
      8          6           0        1.484841   -0.012937    0.034573
      9         17           0        2.926017   -0.952149    0.081432
     10          6           0        0.243666   -0.644334    0.076864
     11          1           0       -4.219578   -0.403457    0.337262
     12          1           0       -3.319036    1.004055    0.789896
     13          1           0       -1.732044    2.128190   -0.208346
     14          1           0        0.473254    3.223362   -0.215145
     15          1           0        2.541733    1.863828   -0.111689
     16          1           0        0.183033   -1.727843    0.155601
 ---------------------------------------------------------------------
 Rotational constants (GHZ):      2.2562345      0.6992920      0.5398392
 Standard basis: 6-31G(d) (6D, 7F)
 There are   166 symmetry adapted basis functions of A   symmetry.
 Integral buffers will be    131072 words long.
 Raffenetti 2 integral format.
 Two-electron integral symmetry is turned on.
   166 basis functions,   328 primitive gaussians,   166 cartesian basis functions
    40 alpha electrons       40 beta electrons
       nuclear repulsion energy       549.6928437374 Hartrees.
 NAtoms=   16 NActive=   16 NUniq=   16 SFac= 1.00D+00 NAtFMM=   60 NAOKFM=F Big=F
 One-electron integrals computed using PRISM.
 NBasis=   166 RedAO= T  NBF=   166
 NBsUse=   166 1.00D-06 NBFU=   166
 Harris functional with IExCor=  402 diagonalized for initial guess.
 ExpMin= 1.43D-01 ExpMax= 2.52D+04 ExpMxC= 3.78D+03 IAcc=3 IRadAn=         5 AccDes= 0.00D+00
 HarFok:  IExCor=  402 AccDes= 0.00D+00 IRadAn=         5 IDoV= 1
 ScaDFX=  1.000000  1.000000  1.000000  1.000000
 FoFCou: FMM=F IPFlag=           0 FMFlag=      100000 FMFlg1=           0
         NFxFlg=           0 DoJE=T BraDBF=F KetDBF=T FulRan=T
         Omega=  0.000000  0.000000  1.000000  0.000000  0.000000 ICntrl=     500 IOpCl=  0
         NMat0=    1 NMatS0=    1 NMatT0=    0 NMatD0=    1 NMtDS0=    0 NMtDT0=    0
         I1Cent=           4 NGrid=           0.
 Petite list used in FoFCou.
 Initial guess orbital symmetries:
       Occupied  (A) (A) (A) (A) (A) (A) (A) (A) (A) (A) (A) (A)
                 (A) (A) (A) (A) (A) (A) (A) (A) (A) (A) (A) (A)
                 (A) (A) (A) (A) (A) (A) (A) (A) (A) (A) (A) (A)
                 (A) (A) (A) (A)
       Virtual   (A) (A) (A) (A) (A) (A) (A) (A) (A) (A) (A) (A)
                 (A) (A) (A) (A) (A) (A) (A) (A) (A) (A) (A) (A)
                 (A) (A) (A) (A) (A) (A) (A) (A) (A) (A) (A) (A)
                 (A) (A) (A) (A) (A) (A) (A) (A) (A) (A) (A) (A)
                 (A) (A) (A) (A) (A) (A) (A) (A) (A) (A) (A) (A)
                 (A) (A) (A) (A) (A) (A) (A) (A) (A) (A) (A) (A)
                 (A) (A) (A) (A) (A) (A) (A) (A) (A) (A) (A) (A)
                 (A) (A) (A) (A) (A) (A) (A) (A) (A) (A) (A) (A)
                 (A) (A) (A) (A) (A) (A) (A) (A) (A) (A) (A) (A)
                 (A) (A) (A) (A) (A) (A) (A) (A) (A) (A) (A) (A)
                 (A) (A) (A) (A) (A) (A)
 The electronic state of the initial guess is 1-A.
 Requested convergence on RMS density matrix=1.00D-08 within 128 cycles.
 Requested convergence on MAX density matrix=1.00D-06.
 Requested convergence on             energy=1.00D-06.
 No special actions if energy rises.
 Integral accuracy reduced to 1.0D-05 until final iterations.
 Initial convergence to 1.0D-05 achieved.  Increase integral accuracy.
 SCF Done:  E(RB3LYP) =  -860.544428764     A.U. after   14 cycles
             Convg  =    0.8794D-08             -V/T =  2.0060
 Calling FoFJK, ICntrl=      2127 FMM=F ISym2X=0 I1Cent= 0 IOpClX= 0 NMat=1 NMatS=1 NMatT=0.
 ***** Axes restored to original set *****
 -------------------------------------------------------------------
 Center     Atomic                   Forces (Hartrees/Bohr)
 Number     Number              X              Y              Z
 -------------------------------------------------------------------
      1        7          -0.005896594    0.002644349   -0.002327864
      2        6           0.000112874   -0.013137771    0.002271833
      3        8           0.002720390   -0.002221540   -0.001242477
      4        6          -0.000871138    0.010472608    0.000267749
      5        6           0.002081890    0.004415043    0.001834359
      6        6           0.000064557   -0.003786337   -0.001051209
      7        6          -0.000901129    0.007593828    0.000240820
      8        6          -0.016114559    0.000065347   -0.005854271
      9       17           0.014977711   -0.001736658    0.006267736
     10        6           0.002427674   -0.002605904   -0.000364252
     11        1           0.001292983    0.001372917    0.000797149
     12        1           0.001371889   -0.000463911    0.000719059
     13        1          -0.000041964   -0.001660318   -0.000257976
     14        1           0.000955789   -0.000740142    0.000203694
     15        1           0.000448901   -0.001943418    0.000626352
     16        1          -0.002629274    0.001731905   -0.002130701
 -------------------------------------------------------------------
 Cartesian Forces:  Max     0.016114559 RMS     0.004685701

 GradGradGradGradGradGradGradGradGradGradGradGradGradGradGradGradGradGrad
 Berny optimization.
 Internal  Forces:  Max     0.016306313 RMS     0.002804093
 Search for a local minimum.
 Step number   1 out of a maximum of   82
 All quantities printed in internal units (Hartrees-Bohrs-Radians)
 Mixed Optimization -- RFO/linear search
 Second derivative matrix not updated -- first step.
 ITU=  0
     Eigenvalues ---    0.00951   0.01541   0.01738   0.02081   0.02102
     Eigenvalues ---    0.02129   0.02138   0.02139   0.02146   0.02159
     Eigenvalues ---    0.02162   0.02171   0.02409   0.15985   0.15996
     Eigenvalues ---    0.15998   0.15999   0.16000   0.16000   0.22000
     Eigenvalues ---    0.23468   0.23493   0.24962   0.24996   0.24999
     Eigenvalues ---    0.25000   0.33494   0.33887   0.35038   0.35101
     Eigenvalues ---    0.35139   0.35285   0.41894   0.42091   0.45593
     Eigenvalues ---    0.45605   0.46027   0.46142   0.46374   0.46630
     Eigenvalues ---    0.51703   0.93193
 RFO step:  Lambda=-2.35899126D-03 EMin= 9.50613963D-03
 Linear search not attempted -- first point.
 Iteration  1 RMS(Cart)=  0.02709446 RMS(Int)=  0.00048893
 Iteration  2 RMS(Cart)=  0.00079963 RMS(Int)=  0.00014283
 Iteration  3 RMS(Cart)=  0.00000036 RMS(Int)=  0.00014283
 Variable       Old X    -DE/DX   Delta X   Delta X   Delta X     New X
                                 (Linear)    (Quad)   (Total)
    R1        2.58184   0.00338   0.00000   0.00651   0.00651   2.58836
    R2        1.91293  -0.00197   0.00000  -0.00429  -0.00429   1.90864
    R3        1.90672  -0.00081   0.00000  -0.00174  -0.00174   1.90497
    R4        2.31496   0.00350   0.00000   0.00375   0.00375   2.31870
    R5        2.80821   0.00988   0.00000   0.02895   0.02895   2.83715
    R6        2.64926   0.00013   0.00000  -0.00006  -0.00006   2.64920
    R7        2.64668  -0.00188   0.00000  -0.00430  -0.00432   2.64236
    R8        2.63922  -0.00084   0.00000  -0.00196  -0.00194   2.63728
    R9        2.05214  -0.00006   0.00000  -0.00016  -0.00016   2.05198
   R10        2.63585  -0.00052   0.00000  -0.00093  -0.00091   2.63494
   R11        2.05511  -0.00108   0.00000  -0.00306  -0.00306   2.05205
   R12        2.63550   0.00218   0.00000   0.00499   0.00500   2.64049
   R13        2.05449  -0.00120   0.00000  -0.00339  -0.00339   2.05110
   R14        3.25192   0.01631   0.00000   0.04834   0.04834   3.30027
   R15        2.63274   0.00021   0.00000   0.00060   0.00059   2.63333
   R16        2.05613  -0.00286   0.00000  -0.00811  -0.00811   2.04802
    A1        2.03438   0.00004   0.00000  -0.00263  -0.00292   2.03146
    A2        2.15731  -0.00132   0.00000  -0.01097  -0.01126   2.14605
    A3        2.05681   0.00096   0.00000   0.00291   0.00260   2.05941
    A4        2.10874   0.00386   0.00000   0.01545   0.01497   2.12371
    A5        2.05491  -0.00523   0.00000  -0.02056  -0.02104   2.03387
    A6        2.11949   0.00138   0.00000   0.00562   0.00515   2.12464
    A7        2.12612   0.00565   0.00000   0.02323   0.02323   2.14935
    A8        2.06540  -0.00486   0.00000  -0.01851  -0.01853   2.04687
    A9        2.09039  -0.00077   0.00000  -0.00372  -0.00390   2.08649
   A10        2.09633   0.00038   0.00000   0.00072   0.00064   2.09697
   A11        2.11518  -0.00192   0.00000  -0.01095  -0.01092   2.10426
   A12        2.07089   0.00155   0.00000   0.01046   0.01050   2.08139
   A13        2.09377   0.00161   0.00000   0.00745   0.00730   2.10107
   A14        2.09540  -0.00022   0.00000   0.00013   0.00007   2.09547
   A15        2.09376  -0.00138   0.00000  -0.00706  -0.00712   2.08665
   A16        2.09208  -0.00258   0.00000  -0.01047  -0.01054   2.08154
   A17        2.08997   0.00297   0.00000   0.01559   0.01562   2.10560
   A18        2.10103  -0.00039   0.00000  -0.00506  -0.00503   2.09600
   A19        2.08658   0.00004   0.00000  -0.00024  -0.00023   2.08635
   A20        2.10448   0.00076   0.00000   0.00397   0.00383   2.10831
   A21        2.09200  -0.00078   0.00000  -0.00348  -0.00348   2.08853
   A22        2.08914   0.00062   0.00000   0.00278   0.00259   2.09172
   A23        2.09591  -0.00260   0.00000  -0.01538  -0.01540   2.08051
   A24        2.09804   0.00199   0.00000   0.01291   0.01289   2.11093
    D1        0.04709   0.00090   0.00000   0.04276   0.04279   0.08988
    D2       -3.08432  -0.00009   0.00000  -0.01361  -0.01373  -3.09805
    D3        2.90207  -0.00023   0.00000   0.00018   0.00030   2.90237
    D4       -0.22934  -0.00122   0.00000  -0.05619  -0.05623  -0.28556
    D5       -0.42292   0.00088   0.00000   0.05370   0.05362  -0.36931
    D6        2.77313   0.00048   0.00000   0.03258   0.03248   2.80561
    D7        2.72892  -0.00013   0.00000  -0.00310  -0.00300   2.72591
    D8       -0.35821  -0.00053   0.00000  -0.02422  -0.02414  -0.38235
    D9       -3.08826  -0.00064   0.00000  -0.03493  -0.03512  -3.12338
   D10        0.01016  -0.00047   0.00000  -0.02814  -0.02834  -0.01818
   D11       -0.00189  -0.00036   0.00000  -0.01394  -0.01395  -0.01584
   D12        3.09653  -0.00019   0.00000  -0.00716  -0.00717   3.08936
   D13        3.07434   0.00154   0.00000   0.06032   0.05997   3.13432
   D14       -0.05168   0.00094   0.00000   0.03728   0.03719  -0.01449
   D15       -0.01394   0.00094   0.00000   0.03876   0.03873   0.02480
   D16       -3.13996   0.00034   0.00000   0.01572   0.01596  -3.12401
   D17        0.01606  -0.00043   0.00000  -0.01942  -0.01952  -0.00346
   D18        3.13314   0.00010   0.00000   0.00477   0.00479   3.13793
   D19       -3.08345  -0.00051   0.00000  -0.02552  -0.02569  -3.10914
   D20        0.03363   0.00002   0.00000  -0.00133  -0.00138   0.03226
   D21       -0.01433   0.00067   0.00000   0.02799   0.02797   0.01364
   D22        3.11202   0.00075   0.00000   0.03247   0.03251  -3.13865
   D23       -3.13144   0.00012   0.00000   0.00373   0.00368  -3.12776
   D24       -0.00509   0.00020   0.00000   0.00820   0.00823   0.00314
   D25        3.12293   0.00034   0.00000   0.01411   0.01416   3.13709
   D26       -0.00161  -0.00009   0.00000  -0.00301  -0.00295  -0.00456
   D27       -0.00332   0.00023   0.00000   0.00943   0.00946   0.00614
   D28       -3.12786  -0.00020   0.00000  -0.00770  -0.00765  -3.13551
   D29        0.01575  -0.00071   0.00000  -0.03042  -0.03048  -0.01472
   D30       -3.14143  -0.00015   0.00000  -0.00760  -0.00755   3.13421
   D31       -3.10874  -0.00115   0.00000  -0.04762  -0.04764   3.12681
   D32        0.01727  -0.00059   0.00000  -0.02481  -0.02471  -0.00744
         Item               Value     Threshold  Converged?
 Maximum Force            0.016306     0.000450     NO 
 RMS     Force            0.002804     0.000300     NO 
 Maximum Displacement     0.116660     0.001800     NO 
 RMS     Displacement     0.026975     0.001200     NO 
 Predicted change in Energy=-1.216804D-03
 GradGradGradGradGradGradGradGradGradGradGradGradGradGradGradGradGradGrad

                          Input orientation:                          
 ---------------------------------------------------------------------
 Center     Atomic      Atomic             Coordinates (Angstroms)
 Number     Number       Type             X           Y           Z
 ---------------------------------------------------------------------
      1          7           0        1.135092    0.029754   -0.109388
      2          6           0        2.500209   -0.036964   -0.019515
      3          8           0        3.115629   -1.059203   -0.305571
      4          6           0        3.207905    1.223034    0.387481
      5          6           0        2.639819    2.497927    0.256188
      6          6           0        3.362981    3.629882    0.634846
      7          6           0        4.652526    3.503226    1.149861
      8          6           0        5.219224    2.231431    1.267370
      9         17           0        6.836478    2.065015    1.905176
     10          6           0        4.509597    1.095751    0.882023
     11          1           0        0.658165   -0.828739   -0.345280
     12          1           0        0.594043    0.773770    0.302812
     13          1           0        1.648956    2.619600   -0.170987
     14          1           0        2.922877    4.616979    0.529368
     15          1           0        5.217690    4.380528    1.448210
     16          1           0        4.949305    0.108740    0.965758
 ---------------------------------------------------------------------
                    Distance matrix (angstroms):
                    1          2          3          4          5
     1  N    0.000000
     2  C    1.369699   0.000000
     3  O    2.268665   1.227005   0.000000
     4  C    2.442816   1.501357   2.386931   0.000000
     5  C    2.913714   2.553660   3.632511   1.401896   0.000000
     6  C    4.298638   3.823391   4.788849   2.424491   1.395588
     7  C    5.101280   4.304980   5.029521   2.804894   2.420798
     8  C    4.839729   3.767590   4.210407   2.415880   2.783314
     9  Cl   6.380169   5.189025   5.337870   4.022297   4.529738
    10  C    3.675123   2.476581   2.827959   1.398276   2.419470
    11  H    1.010007   2.031295   2.468566   3.353786   3.918600
    12  H    1.008068   2.096343   3.176211   2.653541   2.675835
    13  H    2.641052   2.793727   3.962680   2.166243   1.085861
    14  H    4.964556   4.705221   5.740498   3.408847   2.155256
    15  H    6.166276   5.390098   6.089752   3.890264   3.407422
    16  H    3.963634   2.643872   2.518478   2.146748   3.397856
                    6          7          8          9         10
     6  C    0.000000
     7  C    1.394349   0.000000
     8  C    2.408608   1.397289   0.000000
     9  Cl   4.015935   2.721874   1.746426   0.000000
    10  C    2.792426   2.426540   1.393496   2.720421   0.000000
    11  H    5.306220   6.079168   5.724381   7.184004   4.476993
    12  H    3.991821   4.963739   4.944436   6.572890   3.971237
    13  H    2.146606   3.398068   3.868639   5.615017   3.407964
    14  H    1.085900   2.148754   3.392447   4.870487   3.878284
    15  H    2.159856   1.085395   2.156693   2.861974   3.407598
    16  H    3.876128   3.412405   2.160936   2.875925   1.083765
                   11         12         13         14         15
    11  H    0.000000
    12  H    1.729789   0.000000
    13  H    3.592087   2.178168   0.000000
    14  H    5.962363   4.499450   2.470404   0.000000
    15  H    7.151387   5.974844   4.296340   2.483213   0.000000
    16  H    4.583837   4.455341   4.299874   4.961962   4.307315
                   16
    16  H    0.000000
 Stoichiometry    C7H6ClNO
 Framework group  C1[X(C7H6ClNO)]
 Deg. of freedom    42
 Full point group                 C1      NOp   1
 Largest Abelian subgroup         C1      NOp   1
 Largest concise Abelian subgroup C1      NOp   1
                         Standard orientation:                         
 ---------------------------------------------------------------------
 Center     Atomic      Atomic             Coordinates (Angstroms)
 Number     Number       Type             X           Y           Z
 ---------------------------------------------------------------------
      1          7           0       -3.347970    0.114644    0.336729
      2          6           0       -2.239518   -0.605743   -0.021673
      3          8           0       -2.318855   -1.779404   -0.370623
      4          6           0       -0.932076    0.132268   -0.024513
      5          6           0       -0.840073    1.528395   -0.112145
      6          6           0        0.409980    2.148609   -0.131342
      7          6           0        1.576047    1.387464   -0.059547
      8          6           0        1.479602   -0.004483    0.015267
      9         17           0        2.935642   -0.965211    0.098637
     10          6           0        0.236476   -0.634079    0.024178
     11          1           0       -4.220186   -0.393131    0.375707
     12          1           0       -3.295256    1.001830    0.812463
     13          1           0       -1.735504    2.136373   -0.199665
     14          1           0        0.479681    3.229918   -0.202686
     15          1           0        2.550377    1.865611   -0.071406
     16          1           0        0.158968   -1.713860    0.075283
 ---------------------------------------------------------------------
 Rotational constants (GHZ):      2.2243151      0.6962403      0.5363570
 Standard basis: 6-31G(d) (6D, 7F)
 There are   166 symmetry adapted basis functions of A   symmetry.
 Integral buffers will be    131072 words long.
 Raffenetti 2 integral format.
 Two-electron integral symmetry is turned on.
   166 basis functions,   328 primitive gaussians,   166 cartesian basis functions
    40 alpha electrons       40 beta electrons
       nuclear repulsion energy       547.9407698144 Hartrees.
 NAtoms=   16 NActive=   16 NUniq=   16 SFac= 1.00D+00 NAtFMM=   60 NAOKFM=F Big=F
 One-electron integrals computed using PRISM.
 NBasis=   166 RedAO= T  NBF=   166
 NBsUse=   166 1.00D-06 NBFU=   166
 Initial guess read from the read-write file.
 B after Tr=     0.000000    0.000000    0.000000
         Rot=    1.000000    0.000000    0.000000    0.000000 Ang=   0.00 deg.
 Initial guess orbital symmetries:
       Occupied  (A) (A) (A) (A) (A) (A) (A) (A) (A) (A) (A) (A)
                 (A) (A) (A) (A) (A) (A) (A) (A) (A) (A) (A) (A)
                 (A) (A) (A) (A) (A) (A) (A) (A) (A) (A) (A) (A)
                 (A) (A) (A) (A)
       Virtual   (A) (A) (A) (A) (A) (A) (A) (A) (A) (A) (A) (A)
                 (A) (A) (A) (A) (A) (A) (A) (A) (A) (A) (A) (A)
                 (A) (A) (A) (A) (A) (A) (A) (A) (A) (A) (A) (A)
                 (A) (A) (A) (A) (A) (A) (A) (A) (A) (A) (A) (A)
                 (A) (A) (A) (A) (A) (A) (A) (A) (A) (A) (A) (A)
                 (A) (A) (A) (A) (A) (A) (A) (A) (A) (A) (A) (A)
                 (A) (A) (A) (A) (A) (A) (A) (A) (A) (A) (A) (A)
                 (A) (A) (A) (A) (A) (A) (A) (A) (A) (A) (A) (A)
                 (A) (A) (A) (A) (A) (A) (A) (A) (A) (A) (A) (A)
                 (A) (A) (A) (A) (A) (A) (A) (A) (A) (A) (A) (A)
                 (A) (A) (A) (A) (A) (A)
 Harris functional with IExCor=  402 diagonalized for initial guess.
 ExpMin= 1.43D-01 ExpMax= 2.52D+04 ExpMxC= 3.78D+03 IAcc=3 IRadAn=         5 AccDes= 0.00D+00
 HarFok:  IExCor=  402 AccDes= 0.00D+00 IRadAn=         5 IDoV= 1
 ScaDFX=  1.000000  1.000000  1.000000  1.000000
 FoFCou: FMM=F IPFlag=           0 FMFlag=      100000 FMFlg1=           0
         NFxFlg=           0 DoJE=T BraDBF=F KetDBF=T FulRan=T
         Omega=  0.000000  0.000000  1.000000  0.000000  0.000000 ICntrl=     500 IOpCl=  0
         NMat0=    1 NMatS0=    1 NMatT0=    0 NMatD0=    1 NMtDS0=    0 NMtDT0=    0
         I1Cent=           4 NGrid=           0.
 Petite list used in FoFCou.
 Requested convergence on RMS density matrix=1.00D-08 within 128 cycles.
 Requested convergence on MAX density matrix=1.00D-06.
 Requested convergence on             energy=1.00D-06.
 No special actions if energy rises.
 Integral accuracy reduced to 1.0D-05 until final iterations.
 Initial convergence to 1.0D-05 achieved.  Increase integral accuracy.
 SCF Done:  E(RB3LYP) =  -860.545721489     A.U. after   12 cycles
             Convg  =    0.5723D-08             -V/T =  2.0061
 Calling FoFJK, ICntrl=      2127 FMM=F ISym2X=0 I1Cent= 0 IOpClX= 0 NMat=1 NMatS=1 NMatT=0.
 ***** Axes restored to original set *****
 -------------------------------------------------------------------
 Center     Atomic                   Forces (Hartrees/Bohr)
 Number     Number              X              Y              Z
 -------------------------------------------------------------------
      1        7          -0.000130230    0.000241206   -0.000923362
      2        6           0.001778986   -0.003642580   -0.005126010
      3        8          -0.001576109    0.002150162    0.003102888
      4        6          -0.001013873    0.003337871    0.000510224
      5        6           0.000288144    0.000771651    0.000659425
      6        6          -0.000462206   -0.001902099    0.000188334
      7        6           0.001555418    0.000959944    0.000272201
      8        6          -0.007300175    0.000052373   -0.002821620
      9       17           0.003896793   -0.000401822    0.001493979
     10        6           0.002869564   -0.000221310    0.001938715
     11        1          -0.000439921   -0.000358079    0.000438504
     12        1           0.000557323   -0.000259176    0.001232804
     13        1          -0.000024695   -0.000125829   -0.000174412
     14        1           0.000039226    0.000179787   -0.000270404
     15        1           0.000117406   -0.000416699    0.000133713
     16        1          -0.000155648   -0.000365400   -0.000654977
 -------------------------------------------------------------------
 Cartesian Forces:  Max     0.007300175 RMS     0.001911761

 GradGradGradGradGradGradGradGradGradGradGradGradGradGradGradGradGradGrad
 Berny optimization.
 Using GEDIIS/GDIIS optimizer.
 Internal  Forces:  Max     0.004192388 RMS     0.000932639
 Search for a local minimum.
 Step number   2 out of a maximum of   82
 All quantities printed in internal units (Hartrees-Bohrs-Radians)
 Mixed Optimization -- En-DIIS/RFO-DIIS
 Update second derivatives using D2CorX and points    1    2
 DE= -1.29D-03 DEPred=-1.22D-03 R= 1.06D+00
 SS=  1.41D+00  RLast= 1.79D-01 DXNew= 5.0454D-01 5.3835D-01
 Trust test= 1.06D+00 RLast= 1.79D-01 DXMaxT set to 5.05D-01
 ITU=  1  0
 Use linear search instead of GDIIS.
     Eigenvalues ---    0.00941   0.01585   0.01774   0.02086   0.02103
     Eigenvalues ---    0.02112   0.02134   0.02143   0.02156   0.02161
     Eigenvalues ---    0.02162   0.02364   0.02634   0.15022   0.15993
     Eigenvalues ---    0.15999   0.16000   0.16000   0.16147   0.20886
     Eigenvalues ---    0.22376   0.23564   0.24278   0.24981   0.25000
     Eigenvalues ---    0.25153   0.29644   0.33856   0.35082   0.35136
     Eigenvalues ---    0.35183   0.35288   0.41955   0.42161   0.45592
     Eigenvalues ---    0.45791   0.46029   0.46138   0.46562   0.47001
     Eigenvalues ---    0.51811   0.94993
 RFO step:  Lambda=-9.03147226D-04 EMin= 9.40523692D-03
 Quartic linear search produced a step of  0.11870.
 Iteration  1 RMS(Cart)=  0.03512949 RMS(Int)=  0.00120856
 Iteration  2 RMS(Cart)=  0.00174506 RMS(Int)=  0.00045412
 Iteration  3 RMS(Cart)=  0.00000149 RMS(Int)=  0.00045412
 Iteration  4 RMS(Cart)=  0.00000000 RMS(Int)=  0.00045412
 Variable       Old X    -DE/DX   Delta X   Delta X   Delta X     New X
                                 (Linear)    (Quad)   (Total)
    R1        2.58836  -0.00005   0.00077   0.00169   0.00246   2.59082
    R2        1.90864   0.00041  -0.00051  -0.00019  -0.00069   1.90794
    R3        1.90497   0.00001  -0.00021  -0.00045  -0.00066   1.90432
    R4        2.31870  -0.00331   0.00044  -0.00292  -0.00248   2.31622
    R5        2.83715   0.00182   0.00344   0.01402   0.01746   2.85461
    R6        2.64920  -0.00037  -0.00001  -0.00086  -0.00086   2.64834
    R7        2.64236   0.00080  -0.00051   0.00079   0.00027   2.64263
    R8        2.63728  -0.00078  -0.00023  -0.00239  -0.00262   2.63466
    R9        2.05198   0.00008  -0.00002   0.00020   0.00018   2.05216
   R10        2.63494   0.00028  -0.00011   0.00039   0.00029   2.63522
   R11        2.05205   0.00017  -0.00036  -0.00029  -0.00066   2.05140
   R12        2.64049  -0.00081   0.00059  -0.00061  -0.00002   2.64048
   R13        2.05110  -0.00024  -0.00040  -0.00170  -0.00210   2.04900
   R14        3.30027   0.00419   0.00574   0.02735   0.03309   3.33336
   R15        2.63333  -0.00184   0.00007  -0.00426  -0.00419   2.62913
   R16        2.04802   0.00022  -0.00096  -0.00155  -0.00251   2.04551
    A1        2.03146   0.00065  -0.00035  -0.00117  -0.00248   2.02898
    A2        2.14605  -0.00129  -0.00134  -0.01692  -0.01921   2.12684
    A3        2.05941   0.00021   0.00031  -0.00293  -0.00366   2.05575
    A4        2.12371   0.00063   0.00178   0.00866   0.00847   2.13218
    A5        2.03387  -0.00059  -0.00250  -0.00683  -0.01129   2.02258
    A6        2.12464   0.00004   0.00061   0.00313   0.00179   2.12643
    A7        2.14935   0.00138   0.00276   0.01247   0.01520   2.16454
    A8        2.04687  -0.00174  -0.00220  -0.01302  -0.01526   2.03161
    A9        2.08649   0.00037  -0.00046   0.00093   0.00041   2.08690
   A10        2.09697  -0.00036   0.00008  -0.00134  -0.00128   2.09569
   A11        2.10426   0.00003  -0.00130  -0.00340  -0.00470   2.09957
   A12        2.08139   0.00033   0.00125   0.00461   0.00586   2.08726
   A13        2.10107   0.00037   0.00087   0.00406   0.00491   2.10598
   A14        2.09547  -0.00018   0.00001  -0.00100  -0.00099   2.09448
   A15        2.08665  -0.00019  -0.00084  -0.00307  -0.00392   2.08273
   A16        2.08154  -0.00083  -0.00125  -0.00716  -0.00843   2.07311
   A17        2.10560   0.00079   0.00185   0.00907   0.01093   2.11653
   A18        2.09600   0.00004  -0.00060  -0.00188  -0.00247   2.09353
   A19        2.08635  -0.00069  -0.00003  -0.00312  -0.00314   2.08321
   A20        2.10831   0.00139   0.00045   0.00721   0.00764   2.11595
   A21        2.08853  -0.00070  -0.00041  -0.00409  -0.00450   2.08402
   A22        2.09172  -0.00093   0.00031  -0.00382  -0.00354   2.08818
   A23        2.08051  -0.00007  -0.00183  -0.00565  -0.00748   2.07302
   A24        2.11093   0.00099   0.00153   0.00952   0.01105   2.12198
    D1        0.08988  -0.00049   0.00508  -0.03636  -0.03154   0.05835
    D2       -3.09805   0.00147  -0.00163   0.08330   0.08157  -3.01648
    D3        2.90237  -0.00192   0.00004  -0.10917  -0.10903   2.79334
    D4       -0.28556   0.00005  -0.00667   0.01050   0.00408  -0.28148
    D5       -0.36931  -0.00076   0.00636  -0.03176  -0.02526  -0.39457
    D6        2.80561  -0.00089   0.00386  -0.04515  -0.04116   2.76445
    D7        2.72591   0.00122  -0.00036   0.08813   0.08764   2.81355
    D8       -0.38235   0.00109  -0.00287   0.07474   0.07174  -0.31061
    D9       -3.12338  -0.00002  -0.00417  -0.01257  -0.01692  -3.14030
   D10       -0.01818  -0.00014  -0.00336  -0.01666  -0.02016  -0.03834
   D11       -0.01584   0.00007  -0.00166   0.00086  -0.00082  -0.01666
   D12        3.08936  -0.00005  -0.00085  -0.00323  -0.00406   3.08530
   D13        3.13432   0.00005   0.00712   0.01800   0.02493  -3.12394
   D14       -0.01449   0.00034   0.00442   0.02647   0.03073   0.01625
   D15        0.02480  -0.00010   0.00460   0.00487   0.00947   0.03426
   D16       -3.12401   0.00019   0.00189   0.01334   0.01527  -3.10874
   D17       -0.00346   0.00000  -0.00232  -0.00536  -0.00771  -0.01117
   D18        3.13793  -0.00018   0.00057  -0.00771  -0.00713   3.13080
   D19       -3.10914   0.00012  -0.00305  -0.00115  -0.00428  -3.11342
   D20        0.03226  -0.00006  -0.00016  -0.00351  -0.00370   0.02856
   D21        0.01364  -0.00007   0.00332   0.00392   0.00726   0.02090
   D22       -3.13865  -0.00003   0.00386   0.00717   0.01107  -3.12759
   D23       -3.12776   0.00011   0.00044   0.00626   0.00668  -3.12107
   D24        0.00314   0.00015   0.00098   0.00951   0.01049   0.01362
   D25        3.13709  -0.00004   0.00168   0.00142   0.00308   3.14017
   D26       -0.00456   0.00006  -0.00035   0.00195   0.00162  -0.00294
   D27        0.00614  -0.00009   0.00112  -0.00188  -0.00076   0.00538
   D28       -3.13551   0.00001  -0.00091  -0.00135  -0.00221  -3.13773
   D29       -0.01472   0.00004  -0.00362  -0.00631  -0.00996  -0.02468
   D30        3.13421  -0.00025  -0.00090  -0.01487  -0.01585   3.11836
   D31        3.12681   0.00014  -0.00566  -0.00578  -0.01141   3.11539
   D32       -0.00744  -0.00015  -0.00293  -0.01434  -0.01731  -0.02475
         Item               Value     Threshold  Converged?
 Maximum Force            0.004192     0.000450     NO 
 RMS     Force            0.000933     0.000300     NO 
 Maximum Displacement     0.137850     0.001800     NO 
 RMS     Displacement     0.035357     0.001200     NO 
 Predicted change in Energy=-4.825101D-04
 GradGradGradGradGradGradGradGradGradGradGradGradGradGradGradGradGradGrad

                          Input orientation:                          
 ---------------------------------------------------------------------
 Center     Atomic      Atomic             Coordinates (Angstroms)
 Number     Number       Type             X           Y           Z
 ---------------------------------------------------------------------
      1          7           0        1.136993    0.022867   -0.110174
      2          6           0        2.505852   -0.035981   -0.061132
      3          8           0        3.121967   -1.075833   -0.264684
      4          6           0        3.206513    1.238411    0.347402
      5          6           0        2.642229    2.515806    0.229600
      6          6           0        3.364594    3.638486    0.631569
      7          6           0        4.645910    3.505998    1.165711
      8          6           0        5.203544    2.228869    1.267572
      9         17           0        6.824203    2.043859    1.938925
     10          6           0        4.503783    1.100793    0.851121
     11          1           0        0.657949   -0.850972   -0.272333
     12          1           0        0.620417    0.766861    0.331553
     13          1           0        1.656431    2.640973   -0.208391
     14          1           0        2.930322    4.628242    0.530499
     15          1           0        5.211301    4.371249    1.493345
     16          1           0        4.938488    0.111103    0.907769
 ---------------------------------------------------------------------
                    Distance matrix (angstroms):
                    1          2          3          4          5
     1  N    0.000000
     2  C    1.371000   0.000000
     3  O    2.274013   1.225692   0.000000
     4  C    2.443325   1.510596   2.395312   0.000000
     5  C    2.931881   2.571914   3.657093   1.401440   0.000000
     6  C    4.311043   3.836533   4.804887   2.422004   1.394203
     7  C    5.106132   4.316319   5.036030   2.807747   2.423123
     8  C    4.827159   3.764644   4.195453   2.411608   2.778499
     9  Cl   6.373976   5.193662   5.319297   4.033530   4.542404
    10  C    3.663507   2.473093   2.809295   1.398420   2.419490
    11  H    1.009640   2.030655   2.474268   3.353322   3.940113
    12  H    1.007720   2.086533   3.163664   2.628784   2.675243
    13  H    2.670945   2.812346   3.995699   2.163064   1.085956
    14  H    4.983570   4.720718   5.762422   3.405989   2.153120
    15  H    6.170874   5.399957   6.093167   3.891919   3.411723
    16  H    3.936414   2.622618   2.466417   2.141161   3.393423
                    6          7          8          9         10
     6  C    0.000000
     7  C    1.394501   0.000000
     8  C    2.402761   1.397280   0.000000
     9  Cl   4.027519   2.735081   1.763938   0.000000
    10  C    2.790312   2.429851   1.391277   2.730758   0.000000
    11  H    5.319605   6.079061   5.702557   7.161871   4.456677
    12  H    3.983309   4.939968   4.900883   6.534625   3.932173
    13  H    2.149043   3.401971   3.863976   5.627910   3.406190
    14  H    1.085552   2.146198   3.386415   4.881086   3.875754
    15  H    2.165624   1.084284   2.154258   2.866485   3.407186
    16  H    3.872450   3.417228   2.164405   2.890459   1.082435
                   11         12         13         14         15
    11  H    0.000000
    12  H    1.727272   0.000000
    13  H    3.632456   2.208430   0.000000
    14  H    5.985817   4.503943   2.473458   0.000000
    15  H    7.149981   5.951268   4.304284   2.489173   0.000000
    16  H    4.543263   4.405426   4.291615   4.957783   4.308848
                   16
    16  H    0.000000
 Stoichiometry    C7H6ClNO
 Framework group  C1[X(C7H6ClNO)]
 Deg. of freedom    42
 Full point group                 C1      NOp   1
 Largest Abelian subgroup         C1      NOp   1
 Largest concise Abelian subgroup C1      NOp   1
                         Standard orientation:                         
 ---------------------------------------------------------------------
 Center     Atomic      Atomic             Coordinates (Angstroms)
 Number     Number       Type             X           Y           Z
 ---------------------------------------------------------------------
      1          7           0       -3.344867    0.107454    0.352210
      2          6           0       -2.246359   -0.602185   -0.059290
      3          8           0       -2.306869   -1.793811   -0.339806
      4          6           0       -0.937031    0.151182   -0.060403
      5          6           0       -0.835913    1.547493   -0.124615
      6          6           0        0.417475    2.158078   -0.121938
      7          6           0        1.580906    1.393403   -0.042352
      8          6           0        1.468925    0.001572    0.009197
      9         17           0        2.930801   -0.980599    0.107875
     10          6           0        0.226228   -0.623581   -0.014052
     11          1           0       -4.200092   -0.417676    0.462669
     12          1           0       -3.258933    0.976484    0.855104
     13          1           0       -1.729606    2.157959   -0.213745
     14          1           0        0.494772    3.239216   -0.181838
     15          1           0        2.560177    1.858644   -0.026570
     16          1           0        0.133708   -1.701901    0.004207
 ---------------------------------------------------------------------
 Rotational constants (GHZ):      2.1935014      0.6984161      0.5358806
 Standard basis: 6-31G(d) (6D, 7F)
 There are   166 symmetry adapted basis functions of A   symmetry.
 Integral buffers will be    131072 words long.
 Raffenetti 2 integral format.
 Two-electron integral symmetry is turned on.
   166 basis functions,   328 primitive gaussians,   166 cartesian basis functions
    40 alpha electrons       40 beta electrons
       nuclear repulsion energy       547.2829258277 Hartrees.
 NAtoms=   16 NActive=   16 NUniq=   16 SFac= 1.00D+00 NAtFMM=   60 NAOKFM=F Big=F
 One-electron integrals computed using PRISM.
 NBasis=   166 RedAO= T  NBF=   166
 NBsUse=   166 1.00D-06 NBFU=   166
 Initial guess read from the read-write file.
 B after Tr=     0.000000    0.000000    0.000000
         Rot=    1.000000    0.000000    0.000000    0.000000 Ang=   0.00 deg.
 Initial guess orbital symmetries:
       Occupied  (A) (A) (A) (A) (A) (A) (A) (A) (A) (A) (A) (A)
                 (A) (A) (A) (A) (A) (A) (A) (A) (A) (A) (A) (A)
                 (A) (A) (A) (A) (A) (A) (A) (A) (A) (A) (A) (A)
                 (A) (A) (A) (A)
       Virtual   (A) (A) (A) (A) (A) (A) (A) (A) (A) (A) (A) (A)
                 (A) (A) (A) (A) (A) (A) (A) (A) (A) (A) (A) (A)
                 (A) (A) (A) (A) (A) (A) (A) (A) (A) (A) (A) (A)
                 (A) (A) (A) (A) (A) (A) (A) (A) (A) (A) (A) (A)
                 (A) (A) (A) (A) (A) (A) (A) (A) (A) (A) (A) (A)
                 (A) (A) (A) (A) (A) (A) (A) (A) (A) (A) (A) (A)
                 (A) (A) (A) (A) (A) (A) (A) (A) (A) (A) (A) (A)
                 (A) (A) (A) (A) (A) (A) (A) (A) (A) (A) (A) (A)
                 (A) (A) (A) (A) (A) (A) (A) (A) (A) (A) (A) (A)
                 (A) (A) (A) (A) (A) (A) (A) (A) (A) (A) (A) (A)
                 (A) (A) (A) (A) (A) (A)
 Harris functional with IExCor=  402 diagonalized for initial guess.
 ExpMin= 1.43D-01 ExpMax= 2.52D+04 ExpMxC= 3.78D+03 IAcc=3 IRadAn=         5 AccDes= 0.00D+00
 HarFok:  IExCor=  402 AccDes= 0.00D+00 IRadAn=         5 IDoV= 1
 ScaDFX=  1.000000  1.000000  1.000000  1.000000
 FoFCou: FMM=F IPFlag=           0 FMFlag=      100000 FMFlg1=           0
         NFxFlg=           0 DoJE=T BraDBF=F KetDBF=T FulRan=T
         Omega=  0.000000  0.000000  1.000000  0.000000  0.000000 ICntrl=     500 IOpCl=  0
         NMat0=    1 NMatS0=    1 NMatT0=    0 NMatD0=    1 NMtDS0=    0 NMtDT0=    0
         I1Cent=           4 NGrid=           0.
 Petite list used in FoFCou.
 Requested convergence on RMS density matrix=1.00D-08 within 128 cycles.
 Requested convergence on MAX density matrix=1.00D-06.
 Requested convergence on             energy=1.00D-06.
 No special actions if energy rises.
 Integral accuracy reduced to 1.0D-05 until final iterations.
 Initial convergence to 1.0D-05 achieved.  Increase integral accuracy.
 SCF Done:  E(RB3LYP) =  -860.545645277     A.U. after   13 cycles
             Convg  =    0.3032D-08             -V/T =  2.0061
 Calling FoFJK, ICntrl=      2127 FMM=F ISym2X=0 I1Cent= 0 IOpClX= 0 NMat=1 NMatS=1 NMatT=0.
 ***** Axes restored to original set *****
 -------------------------------------------------------------------
 Center     Atomic                   Forces (Hartrees/Bohr)
 Number     Number              X              Y              Z
 -------------------------------------------------------------------
      1        7           0.001411221    0.000801594   -0.004710633
      2        6           0.001059115   -0.001941102    0.010695892
      3        8          -0.001481591    0.003415910   -0.003624390
      4        6          -0.000248446   -0.000228621   -0.003639390
      5        6          -0.000420752   -0.001629497   -0.000531745
      6        6          -0.000365753    0.000738665    0.000670035
      7        6           0.001481000   -0.002288163    0.000237372
      8        6           0.000293852    0.000146925    0.000215889
      9       17          -0.002357596    0.000439629   -0.001232166
     10        6           0.001604333    0.000384915    0.001004809
     11        1          -0.000746515   -0.000831913    0.000421283
     12        1          -0.000174308    0.000414660    0.000447502
     13        1          -0.000164716    0.000445222   -0.000102012
     14        1          -0.000384687    0.000425939   -0.000133702
     15        1          -0.000144836    0.000530433   -0.000151941
     16        1           0.000639679   -0.000824596    0.000433196
 -------------------------------------------------------------------
 Cartesian Forces:  Max     0.010695892 RMS     0.002098483

 GradGradGradGradGradGradGradGradGradGradGradGradGradGradGradGradGradGrad
 Berny optimization.
 Using GEDIIS/GDIIS optimizer.
 Internal  Forces:  Max     0.003040897 RMS     0.001023678
 Search for a local minimum.
 Step number   3 out of a maximum of   82
 All quantities printed in internal units (Hartrees-Bohrs-Radians)
 Mixed Optimization -- RFO/linear search
 Update second derivatives using D2CorX and points    1    3    2
 DE=  7.62D-05 DEPred=-4.83D-04 R=-1.58D-01
 Trust test=-1.58D-01 RLast= 2.04D-01 DXMaxT set to 2.52D-01
 ITU= -1  1  0
 Use linear search instead of GDIIS.
 Quartic linear search produced a step of -0.53823.
 Iteration  1 RMS(Cart)=  0.01912004 RMS(Int)=  0.00035079
 Iteration  2 RMS(Cart)=  0.00050720 RMS(Int)=  0.00010965
 Iteration  3 RMS(Cart)=  0.00000012 RMS(Int)=  0.00010965
 Variable       Old X    -DE/DX   Delta X   Delta X   Delta X     New X
                                 (Linear)    (Quad)   (Total)
    R1        2.59082  -0.00034  -0.00132   0.00000  -0.00132   2.58949
    R2        1.90794   0.00101   0.00037   0.00000   0.00037   1.90832
    R3        1.90432   0.00059   0.00035   0.00000   0.00035   1.90467
    R4        2.31622  -0.00304   0.00133   0.00000   0.00133   2.31756
    R5        2.85461  -0.00247  -0.00940   0.00000  -0.00940   2.84522
    R6        2.64834  -0.00042   0.00046   0.00000   0.00046   2.64880
    R7        2.64263   0.00133  -0.00015   0.00000  -0.00015   2.64248
    R8        2.63466   0.00017   0.00141   0.00000   0.00141   2.63607
    R9        2.05216   0.00024  -0.00010   0.00000  -0.00010   2.05206
   R10        2.63522   0.00040  -0.00015   0.00000  -0.00015   2.63507
   R11        2.05140   0.00055   0.00035   0.00000   0.00035   2.05175
   R12        2.64048  -0.00120   0.00001   0.00000   0.00001   2.64049
   R13        2.04900   0.00030   0.00113   0.00000   0.00113   2.05013
   R14        3.33336  -0.00268  -0.01781   0.00000  -0.01781   3.31555
   R15        2.62913  -0.00105   0.00226   0.00000   0.00226   2.63139
   R16        2.04551   0.00103   0.00135   0.00000   0.00135   2.04686
    A1        2.02898   0.00039   0.00133   0.00000   0.00157   2.03055
    A2        2.12684  -0.00044   0.01034   0.00000   0.01057   2.13741
    A3        2.05575  -0.00015   0.00197   0.00000   0.00222   2.05797
    A4        2.13218  -0.00042  -0.00456   0.00000  -0.00408   2.12810
    A5        2.02258   0.00039   0.00608   0.00000   0.00655   2.02913
    A6        2.12643   0.00028  -0.00096   0.00000  -0.00049   2.12594
    A7        2.16454  -0.00187  -0.00818   0.00000  -0.00817   2.15637
    A8        2.03161   0.00121   0.00822   0.00000   0.00823   2.03983
    A9        2.08690   0.00066  -0.00022   0.00000  -0.00021   2.08669
   A10        2.09569  -0.00019   0.00069   0.00000   0.00069   2.09638
   A11        2.09957   0.00052   0.00253   0.00000   0.00253   2.10209
   A12        2.08726  -0.00033  -0.00316   0.00000  -0.00316   2.08410
   A13        2.10598  -0.00061  -0.00264   0.00000  -0.00264   2.10334
   A14        2.09448   0.00010   0.00053   0.00000   0.00053   2.09501
   A15        2.08273   0.00051   0.00211   0.00000   0.00211   2.08484
   A16        2.07311   0.00043   0.00454   0.00000   0.00454   2.07765
   A17        2.11653  -0.00069  -0.00588   0.00000  -0.00588   2.11064
   A18        2.09353   0.00026   0.00133   0.00000   0.00133   2.09486
   A19        2.08321  -0.00066   0.00169   0.00000   0.00169   2.08490
   A20        2.11595   0.00086  -0.00411   0.00000  -0.00411   2.11184
   A21        2.08402  -0.00020   0.00242   0.00000   0.00242   2.08645
   A22        2.08818  -0.00114   0.00191   0.00000   0.00191   2.09009
   A23        2.07302   0.00096   0.00403   0.00000   0.00403   2.07705
   A24        2.12198   0.00018  -0.00595   0.00000  -0.00594   2.11603
    D1        0.05835   0.00250   0.01697   0.00000   0.01704   0.07539
    D2       -3.01648  -0.00156  -0.04391   0.00000  -0.04390  -3.06038
    D3        2.79334   0.00192   0.05868   0.00000   0.05867   2.85202
    D4       -0.28148  -0.00214  -0.00219   0.00000  -0.00226  -0.28375
    D5       -0.39457   0.00214   0.01360   0.00000   0.01357  -0.38100
    D6        2.76445   0.00207   0.02215   0.00000   0.02212   2.78658
    D7        2.81355  -0.00188  -0.04717   0.00000  -0.04714   2.76641
    D8       -0.31061  -0.00195  -0.03861   0.00000  -0.03858  -0.34919
    D9       -3.14030  -0.00008   0.00911   0.00000   0.00915  -3.13116
   D10       -0.03834  -0.00003   0.01085   0.00000   0.01088  -0.02746
   D11       -0.01666  -0.00001   0.00044   0.00000   0.00045  -0.01621
   D12        3.08530   0.00005   0.00219   0.00000   0.00218   3.08748
   D13       -3.12394  -0.00021  -0.01342   0.00000  -0.01338  -3.13732
   D14        0.01625  -0.00006  -0.01654   0.00000  -0.01651  -0.00026
   D15        0.03426  -0.00025  -0.00509   0.00000  -0.00509   0.02917
   D16       -3.10874  -0.00010  -0.00822   0.00000  -0.00822  -3.11696
   D17       -0.01117   0.00027   0.00415   0.00000   0.00416  -0.00701
   D18        3.13080   0.00002   0.00384   0.00000   0.00383   3.13464
   D19       -3.11342   0.00019   0.00230   0.00000   0.00232  -3.11110
   D20        0.02856  -0.00006   0.00199   0.00000   0.00199   0.03055
   D21        0.02090  -0.00026  -0.00391   0.00000  -0.00392   0.01699
   D22       -3.12759  -0.00027  -0.00596   0.00000  -0.00597  -3.13355
   D23       -3.12107  -0.00001  -0.00360   0.00000  -0.00359  -3.12467
   D24        0.01362  -0.00002  -0.00564   0.00000  -0.00564   0.00798
   D25        3.14017  -0.00009  -0.00166   0.00000  -0.00165   3.13852
   D26       -0.00294   0.00002  -0.00087   0.00000  -0.00088  -0.00382
   D27        0.00538  -0.00008   0.00041   0.00000   0.00041   0.00579
   D28       -3.13773   0.00003   0.00119   0.00000   0.00118  -3.13654
   D29       -0.02468   0.00025   0.00536   0.00000   0.00536  -0.01932
   D30        3.11836   0.00009   0.00853   0.00000   0.00855   3.12691
   D31        3.11539   0.00036   0.00614   0.00000   0.00614   3.12153
   D32       -0.02475   0.00020   0.00932   0.00000   0.00933  -0.01542
         Item               Value     Threshold  Converged?
 Maximum Force            0.003041     0.000450     NO 
 RMS     Force            0.001024     0.000300     NO 
 Maximum Displacement     0.074894     0.001800     NO 
 RMS     Displacement     0.019069     0.001200     NO 
 Predicted change in Energy=-2.141119D-04
 GradGradGradGradGradGradGradGradGradGradGradGradGradGradGradGradGradGrad

                          Input orientation:                          
 ---------------------------------------------------------------------
 Center     Atomic      Atomic             Coordinates (Angstroms)
 Number     Number       Type             X           Y           Z
 ---------------------------------------------------------------------
      1          7           0        1.135745    0.026301   -0.109902
      2          6           0        2.502760   -0.036308   -0.038690
      3          8           0        3.118654   -1.067421   -0.286748
      4          6           0        3.207304    1.230301    0.369016
      5          6           0        2.641040    2.506400    0.243967
      6          6           0        3.363922    3.634082    0.633397
      7          6           0        4.649719    3.504721    1.157226
      8          6           0        5.212156    2.230396    1.267531
      9         17           0        6.831090    2.055439    1.920794
     10          6           0        4.506970    1.098188    0.867789
     11          1           0        0.657433   -0.839817   -0.311965
     12          1           0        0.605297    0.769997    0.316030
     13          1           0        1.652493    2.629709   -0.188190
     14          1           0        2.926543    4.622428    0.529953
     15          1           0        5.215105    4.376515    1.469127
     16          1           0        4.944269    0.109799    0.939016
 ---------------------------------------------------------------------
                    Distance matrix (angstroms):
                    1          2          3          4          5
     1  N    0.000000
     2  C    1.370300   0.000000
     3  O    2.271438   1.226399   0.000000
     4  C    2.443427   1.505624   2.391111   0.000000
     5  C    2.922675   2.562104   3.644444   1.401685   0.000000
     6  C    4.305038   3.829499   4.796974   2.423343   1.394948
     7  C    5.104217   4.310282   5.033260   2.806212   2.421875
     8  C    4.834510   3.766296   4.204062   2.413908   2.781097
     9  Cl   6.377938   5.191284   5.329886   4.027493   4.535597
    10  C    3.670147   2.475003   2.819617   1.398342   2.419485
    11  H    1.009838   2.031142   2.471851   3.354245   3.929494
    12  H    1.007908   2.091966   3.171185   2.642939   2.676665
    13  H    2.655351   2.802311   3.978456   2.164776   1.085905
    14  H    4.974009   4.712406   5.751374   3.407530   2.154269
    15  H    6.169188   5.394750   6.092179   3.891038   3.409422
    16  H    3.951210   2.634051   2.494237   2.144172   3.395829
                    6          7          8          9         10
     6  C    0.000000
     7  C    1.394419   0.000000
     8  C    2.405915   1.397285   0.000000
     9  Cl   4.021289   2.727973   1.754512   0.000000
    10  C    2.791461   2.428076   1.392471   2.725195   0.000000
    11  H    5.313621   6.080451   5.715463   7.175080   4.468402
    12  H    3.989200   4.954157   4.925573   6.556534   3.954137
    13  H    2.147734   3.399875   3.866493   5.620985   3.407152
    14  H    1.085739   2.147574   3.389670   4.875383   3.877132
    15  H    2.162528   1.084882   2.155569   2.864055   3.407417
    16  H    3.874463   3.414655   2.162549   2.882620   1.083151
                   11         12         13         14         15
    11  H    0.000000
    12  H    1.728756   0.000000
    13  H    3.611520   2.193031   0.000000
    14  H    5.974430   4.502796   2.471814   0.000000
    15  H    7.152257   5.965478   4.300027   2.485967   0.000000
    16  H    4.565489   4.432906   4.296082   4.960078   4.308043
                   16
    16  H    0.000000
 Stoichiometry    C7H6ClNO
 Framework group  C1[X(C7H6ClNO)]
 Deg. of freedom    42
 Full point group                 C1      NOp   1
 Largest Abelian subgroup         C1      NOp   1
 Largest concise Abelian subgroup C1      NOp   1
                         Standard orientation:                         
 ---------------------------------------------------------------------
 Center     Atomic      Atomic             Coordinates (Angstroms)
 Number     Number       Type             X           Y           Z
 ---------------------------------------------------------------------
      1          7           0       -3.347014    0.111538    0.343783
      2          6           0       -2.242716   -0.603788   -0.039042
      3          8           0       -2.313817   -1.786296   -0.356333
      4          6           0       -0.934278    0.141121   -0.041136
      5          6           0       -0.837876    1.537373   -0.118006
      6          6           0        0.413822    2.153043   -0.127086
      7          6           0        1.578610    1.390163   -0.051659
      8          6           0        1.474800   -0.001783    0.012493
      9         17           0        2.933510   -0.972498    0.102995
     10          6           0        0.231737   -0.629266    0.006544
     11          1           0       -4.212190   -0.404266    0.415820
     12          1           0       -3.279603    0.990468    0.832469
     13          1           0       -1.732440    2.146592   -0.206305
     14          1           0        0.487159    3.234283   -0.193188
     15          1           0        2.555359    1.862318   -0.050726
     16          1           0        0.147090   -1.708504    0.042547
 ---------------------------------------------------------------------
 Rotational constants (GHZ):      2.2099496      0.6971363      0.5360454
 Standard basis: 6-31G(d) (6D, 7F)
 There are   166 symmetry adapted basis functions of A   symmetry.
 Integral buffers will be    131072 words long.
 Raffenetti 2 integral format.
 Two-electron integral symmetry is turned on.
   166 basis functions,   328 primitive gaussians,   166 cartesian basis functions
    40 alpha electrons       40 beta electrons
       nuclear repulsion energy       547.6135674312 Hartrees.
 NAtoms=   16 NActive=   16 NUniq=   16 SFac= 1.00D+00 NAtFMM=   60 NAOKFM=F Big=F
 One-electron integrals computed using PRISM.
 NBasis=   166 RedAO= T  NBF=   166
 NBsUse=   166 1.00D-06 NBFU=   166
 Initial guess read from the read-write file.
 B after Tr=     0.000000    0.000000    0.000000
         Rot=    1.000000    0.000000    0.000000    0.000000 Ang=   0.00 deg.
 Initial guess orbital symmetries:
       Occupied  (A) (A) (A) (A) (A) (A) (A) (A) (A) (A) (A) (A)
                 (A) (A) (A) (A) (A) (A) (A) (A) (A) (A) (A) (A)
                 (A) (A) (A) (A) (A) (A) (A) (A) (A) (A) (A) (A)
                 (A) (A) (A) (A)
       Virtual   (A) (A) (A) (A) (A) (A) (A) (A) (A) (A) (A) (A)
                 (A) (A) (A) (A) (A) (A) (A) (A) (A) (A) (A) (A)
                 (A) (A) (A) (A) (A) (A) (A) (A) (A) (A) (A) (A)
                 (A) (A) (A) (A) (A) (A) (A) (A) (A) (A) (A) (A)
                 (A) (A) (A) (A) (A) (A) (A) (A) (A) (A) (A) (A)
                 (A) (A) (A) (A) (A) (A) (A) (A) (A) (A) (A) (A)
                 (A) (A) (A) (A) (A) (A) (A) (A) (A) (A) (A) (A)
                 (A) (A) (A) (A) (A) (A) (A) (A) (A) (A) (A) (A)
                 (A) (A) (A) (A) (A) (A) (A) (A) (A) (A) (A) (A)
                 (A) (A) (A) (A) (A) (A) (A) (A) (A) (A) (A) (A)
                 (A) (A) (A) (A) (A) (A)
 Harris functional with IExCor=  402 diagonalized for initial guess.
 ExpMin= 1.43D-01 ExpMax= 2.52D+04 ExpMxC= 3.78D+03 IAcc=3 IRadAn=         5 AccDes= 0.00D+00
 HarFok:  IExCor=  402 AccDes= 0.00D+00 IRadAn=         5 IDoV= 1
 ScaDFX=  1.000000  1.000000  1.000000  1.000000
 FoFCou: FMM=F IPFlag=           0 FMFlag=      100000 FMFlg1=           0
         NFxFlg=           0 DoJE=T BraDBF=F KetDBF=T FulRan=T
         Omega=  0.000000  0.000000  1.000000  0.000000  0.000000 ICntrl=     500 IOpCl=  0
         NMat0=    1 NMatS0=    1 NMatT0=    0 NMatD0=    1 NMtDS0=    0 NMtDT0=    0
         I1Cent=           4 NGrid=           0.
 Petite list used in FoFCou.
 Requested convergence on RMS density matrix=1.00D-08 within 128 cycles.
 Requested convergence on MAX density matrix=1.00D-06.
 Requested convergence on             energy=1.00D-06.
 No special actions if energy rises.
 Integral accuracy reduced to 1.0D-05 until final iterations.
 Initial convergence to 1.0D-05 achieved.  Increase integral accuracy.
 SCF Done:  E(RB3LYP) =  -860.545936377     A.U. after   12 cycles
             Convg  =    0.8492D-08             -V/T =  2.0061
 Calling FoFJK, ICntrl=      2127 FMM=F ISym2X=0 I1Cent= 0 IOpClX= 0 NMat=1 NMatS=1 NMatT=0.
 ***** Axes restored to original set *****
 -------------------------------------------------------------------
 Center     Atomic                   Forces (Hartrees/Bohr)
 Number     Number              X              Y              Z
 -------------------------------------------------------------------
      1        7           0.000710119    0.000546687   -0.002655082
      2        6           0.001499586   -0.003024632    0.002174881
      3        8          -0.001620329    0.002922633    0.000035731
      4        6          -0.000747116    0.001644187   -0.001438266
      5        6          -0.000037610   -0.000346033    0.000120675
      6        6          -0.000421642   -0.000679728    0.000397524
      7        6           0.001524641   -0.000545422    0.000270976
      8        6          -0.003706084    0.000104209   -0.001420893
      9       17           0.000919140   -0.000021512    0.000229284
     10        6           0.002277671    0.000040592    0.001507566
     11        1          -0.000582663   -0.000568376    0.000430967
     12        1           0.000232990    0.000053432    0.000856536
     13        1          -0.000096805    0.000131417   -0.000143961
     14        1          -0.000155179    0.000293702   -0.000206521
     15        1          -0.000008179    0.000018130   -0.000003513
     16        1           0.000211459   -0.000569285   -0.000155905
 -------------------------------------------------------------------
 Cartesian Forces:  Max     0.003706084 RMS     0.001211622

 GradGradGradGradGradGradGradGradGradGradGradGradGradGradGradGradGradGrad
 Berny optimization.
 Using GEDIIS/GDIIS optimizer.
 Internal  Forces:  Max     0.003278171 RMS     0.000597968
 Search for a local minimum.
 Step number   4 out of a maximum of   82
 All quantities printed in internal units (Hartrees-Bohrs-Radians)
 Mixed Optimization -- En-DIIS/RFO-DIIS
 Update second derivatives using D2CorX and points    1    3    2    4
 ITU=  0 -1  1  0
 Use linear search instead of GDIIS.
     Eigenvalues ---    0.00921   0.01684   0.01960   0.02100   0.02106
     Eigenvalues ---    0.02134   0.02142   0.02154   0.02159   0.02161
     Eigenvalues ---    0.02218   0.02335   0.05244   0.14900   0.15993
     Eigenvalues ---    0.16000   0.16000   0.16004   0.16089   0.20926
     Eigenvalues ---    0.22231   0.23529   0.24535   0.24999   0.25008
     Eigenvalues ---    0.25223   0.30296   0.33936   0.35078   0.35135
     Eigenvalues ---    0.35162   0.35293   0.41948   0.42101   0.45590
     Eigenvalues ---    0.45777   0.46030   0.46154   0.46415   0.46571
     Eigenvalues ---    0.51797   0.93347
 RFO step:  Lambda=-1.88441902D-04 EMin= 9.20672926D-03
 Quartic linear search produced a step of -0.00001.
 Iteration  1 RMS(Cart)=  0.00897623 RMS(Int)=  0.00016622
 Iteration  2 RMS(Cart)=  0.00016998 RMS(Int)=  0.00011041
 Iteration  3 RMS(Cart)=  0.00000002 RMS(Int)=  0.00011041
 Variable       Old X    -DE/DX   Delta X   Delta X   Delta X     New X
                                 (Linear)    (Quad)   (Total)
    R1        2.58949  -0.00029   0.00000  -0.00024  -0.00024   2.58925
    R2        1.90832   0.00068   0.00000   0.00151   0.00151   1.90983
    R3        1.90467   0.00028   0.00000   0.00051   0.00051   1.90518
    R4        2.31756  -0.00328   0.00000  -0.00436  -0.00436   2.31320
    R5        2.84522  -0.00028   0.00000   0.00235   0.00235   2.84756
    R6        2.64880  -0.00040   0.00000  -0.00102  -0.00102   2.64778
    R7        2.64248   0.00103   0.00000   0.00259   0.00260   2.64508
    R8        2.63607  -0.00034   0.00000  -0.00131  -0.00131   2.63476
    R9        2.05206   0.00016   0.00000   0.00051   0.00051   2.05257
   R10        2.63507   0.00034   0.00000   0.00080   0.00080   2.63587
   R11        2.05175   0.00035   0.00000   0.00097   0.00097   2.05272
   R12        2.64049  -0.00098   0.00000  -0.00245  -0.00245   2.63803
   R13        2.05013   0.00001   0.00000  -0.00036  -0.00036   2.04977
   R14        3.31555   0.00094   0.00000   0.00914   0.00914   3.32468
   R15        2.63139  -0.00148   0.00000  -0.00434  -0.00433   2.62706
   R16        2.04686   0.00059   0.00000   0.00143   0.00143   2.04829
    A1        2.03055   0.00053   0.00000  -0.00060  -0.00111   2.02944
    A2        2.13741  -0.00092   0.00000  -0.01364  -0.01415   2.12326
    A3        2.05797   0.00004   0.00000  -0.00448  -0.00504   2.05294
    A4        2.12810   0.00012   0.00000   0.00205   0.00201   2.13011
    A5        2.02913  -0.00027   0.00000  -0.00292  -0.00296   2.02618
    A6        2.12594   0.00016   0.00000   0.00095   0.00091   2.12685
    A7        2.15637  -0.00013   0.00000   0.00219   0.00218   2.15855
    A8        2.03983  -0.00039   0.00000  -0.00487  -0.00489   2.03495
    A9        2.08669   0.00052   0.00000   0.00287   0.00287   2.08956
   A10        2.09638  -0.00029   0.00000  -0.00123  -0.00123   2.09515
   A11        2.10209   0.00025   0.00000   0.00039   0.00039   2.10248
   A12        2.08410   0.00004   0.00000   0.00075   0.00075   2.08484
   A13        2.10334  -0.00009   0.00000   0.00071   0.00069   2.10402
   A14        2.09501  -0.00005   0.00000  -0.00070  -0.00072   2.09429
   A15        2.08484   0.00013   0.00000   0.00000  -0.00002   2.08482
   A16        2.07765  -0.00024   0.00000  -0.00293  -0.00292   2.07473
   A17        2.11064   0.00010   0.00000   0.00261   0.00261   2.11326
   A18        2.09486   0.00014   0.00000   0.00032   0.00032   2.09518
   A19        2.08490  -0.00067   0.00000  -0.00346  -0.00346   2.08144
   A20        2.11184   0.00114   0.00000   0.00632   0.00632   2.11816
   A21        2.08645  -0.00047   0.00000  -0.00286  -0.00287   2.08358
   A22        2.09009  -0.00103   0.00000  -0.00551  -0.00553   2.08456
   A23        2.07705   0.00041   0.00000   0.00035   0.00032   2.07738
   A24        2.11603   0.00063   0.00000   0.00521   0.00518   2.12121
    D1        0.07539   0.00090   0.00000   0.03240   0.03231   0.10769
    D2       -3.06038   0.00009   0.00000   0.01636   0.01625  -3.04412
    D3        2.85202  -0.00015   0.00000  -0.02576  -0.02566   2.82636
    D4       -0.28375  -0.00096   0.00000  -0.04181  -0.04171  -0.32546
    D5       -0.38100   0.00059   0.00000   0.03186   0.03185  -0.34915
    D6        2.78658   0.00049   0.00000   0.02324   0.02324   2.80982
    D7        2.76641  -0.00021   0.00000   0.01583   0.01583   2.78224
    D8       -0.34919  -0.00032   0.00000   0.00721   0.00722  -0.34198
    D9       -3.13116  -0.00006   0.00000  -0.00579  -0.00581  -3.13697
   D10       -0.02746  -0.00009   0.00000  -0.00870  -0.00871  -0.03617
   D11       -0.01621   0.00004   0.00000   0.00294   0.00295  -0.01326
   D12        3.08748   0.00000   0.00000   0.00003   0.00005   3.08753
   D13       -3.13732  -0.00008   0.00000   0.00043   0.00043  -3.13689
   D14       -0.00026   0.00015   0.00000   0.01364   0.01362   0.01336
   D15        0.02917  -0.00017   0.00000  -0.00782  -0.00782   0.02135
   D16       -3.11696   0.00006   0.00000   0.00539   0.00537  -3.11159
   D17       -0.00701   0.00012   0.00000   0.00449   0.00449  -0.00252
   D18        3.13464  -0.00009   0.00000  -0.00651  -0.00651   3.12813
   D19       -3.11110   0.00015   0.00000   0.00737   0.00737  -3.10373
   D20        0.03055  -0.00006   0.00000  -0.00363  -0.00363   0.02692
   D21        0.01699  -0.00015   0.00000  -0.00703  -0.00703   0.00995
   D22       -3.13355  -0.00014   0.00000  -0.00542  -0.00543  -3.13898
   D23       -3.12467   0.00005   0.00000   0.00390   0.00391  -3.12076
   D24        0.00798   0.00007   0.00000   0.00552   0.00552   0.01350
   D25        3.13852  -0.00007   0.00000  -0.00304  -0.00305   3.13547
   D26       -0.00382   0.00004   0.00000   0.00219   0.00218  -0.00164
   D27        0.00579  -0.00008   0.00000  -0.00465  -0.00465   0.00114
   D28       -3.13654   0.00002   0.00000   0.00058   0.00057  -3.13597
   D29       -0.01932   0.00013   0.00000   0.00530   0.00530  -0.01402
   D30        3.12691  -0.00010   0.00000  -0.00820  -0.00822   3.11869
   D31        3.12153   0.00024   0.00000   0.01053   0.01053   3.13206
   D32       -0.01542   0.00001   0.00000  -0.00297  -0.00299  -0.01841
[...]
 ! D7    D(3,2,4,5)            160.1967         -DE/DX =    0.0                 !
 ! D8    D(3,2,4,10)           -18.7604         -DE/DX =    0.0                 !
 ! D9    D(2,4,5,6)           -179.7433         -DE/DX =    0.0                 !
 ! D10   D(2,4,5,13)            -2.0412         -DE/DX =    0.0                 !
 ! D11   D(10,4,5,6)            -0.8157         -DE/DX =    0.0                 !
 ! D12   D(10,4,5,13)          176.8864         -DE/DX =    0.0                 !
 ! D13   D(2,4,10,8)          -179.7841         -DE/DX =    0.0                 !
 ! D14   D(2,4,10,16)            0.4028         -DE/DX =    0.0                 !
 ! D15   D(5,4,10,8)             1.2175         -DE/DX =    0.0                 !
 ! D16   D(5,4,10,16)         -178.5955         -DE/DX =    0.0                 !
 ! D17   D(4,5,6,7)             -0.1179         -DE/DX =    0.0                 !
 ! D18   D(4,5,6,14)           179.4232         -DE/DX =    0.0                 !
 ! D19   D(13,5,6,7)          -177.8425         -DE/DX =    0.0                 !
 ! D20   D(13,5,6,14)            1.6986         -DE/DX =    0.0                 !
 ! D21   D(5,6,7,8)              0.6336         -DE/DX =    0.0                 !
 ! D22   D(5,6,7,15)          -179.8277         -DE/DX =    0.0                 !
 ! D23   D(14,6,7,8)          -178.9098         -DE/DX =    0.0                 !
 ! D24   D(14,6,7,15)            0.629          -DE/DX =    0.0                 !
 ! D25   D(6,7,8,9)            179.6625         -DE/DX =    0.0                 !
 ! D26   D(6,7,8,10)            -0.2206         -DE/DX =    0.0                 !
 ! D27   D(15,7,8,9)             0.1195         -DE/DX =    0.0                 !
 ! D28   D(15,7,8,10)         -179.7636         -DE/DX =    0.0                 !
 ! D29   D(7,8,10,4)            -0.7052         -DE/DX =    0.0                 !
 ! D30   D(7,8,10,16)          179.1031         -DE/DX =    0.0                 !
 ! D31   D(9,8,10,4)           179.4119         -DE/DX =    0.0                 !
 ! D32   D(9,8,10,16)           -0.7798         -DE/DX =    0.0                 !
 --------------------------------------------------------------------------------
 GradGradGradGradGradGradGradGradGradGradGradGradGradGradGradGradGradGrad

 1\1\GINC-NODE072\Freq\RB3LYP\6-31G(d)\C7H6Cl1N1O1\WULSDORT\24-Aug-2018
 \0\\#N Geom=AllCheck Guess=TCheck SCRF=Check GenChk RB3LYP/6-31G(d) Fr
 eq\\Optimization for frag46-conf0\\0,1\N,1.1344991217,0.0489032884,-0.
 1679791742\C,2.501053631,-0.0352716715,-0.0339531617\O,3.1107393432,-1
 .0728001216,-0.255142269\C,3.207177903,1.2312481926,0.3696126793\C,2.6
 389747142,2.5059567835,0.246649035\C,3.3607270209,3.6333493006,0.63856
 94432\C,4.6491729278,3.5041161764,1.1570682114\C,5.2089236961,2.229793
 0043,1.2646450201\Cl,6.8358919971,2.0585724327,1.9087827733\C,4.507524
 7658,1.095850093,0.8710110315\H,0.6633819217,-0.8350027783,-0.31142680
 47\H,0.6168091928,0.7538155242,0.3369405036\H,1.6512208677,2.628448319
 3,-0.1874624462\H,2.9228288189,4.6219277647,0.534072065\H,5.2165919659
 ,4.3751811207,1.466925667\H,4.9449794449,0.1066431818,0.9400396917\\Ve
 rsion=AM64L-G09RevC.01\HF=-860.5461614\RMSD=6.596e-09\RMSF=3.836e-06\Z
 eroPoint=0.118359\Thermal=0.1270269\Dipole=-1.4758586,1.0304594,0.2470
 769\DipoleDeriv=-1.2228686,-0.0768933,-0.1402278,-0.0864668,-0.3969743
 ,0.0896076,-0.3380916,0.0967448,-0.556961,1.72235,0.1963192,0.1543267,
 0.1752377,1.3886161,0.3245027,0.1536479,0.2623963,0.3848087,-0.7819384
 ,0.0247723,-0.0036802,0.1322128,-1.0986311,-0.1945549,0.0377478,-0.172
 7021,-0.4198014,-0.1116967,-0.1563801,-0.0431195,-0.2276837,-0.2564713
 ,-0.1298197,-0.0581611,-0.0923046,-0.0179558,-0.0457726,-0.0598197,0.0
 453231,0.0708092,-0.0462427,0.0347249,0.0985425,0.0172226,-0.067658,-0
 .0380229,-0.1149116,0.0126826,-0.063653,0.1198082,-0.0104723,0.0199469
 ,-0.0308731,-0.0943565,-0.2008583,0.0876435,-0.0358198,0.0568937,0.000
 6945,0.0305794,-0.04095,0.0422387,-0.0952317,1.1292781,-0.0591639,0.44
 83165,-0.0694824,-0.0109947,-0.0267895,0.4483754,-0.0265799,0.1858575,
 -0.7510709,0.0224588,-0.2645947,0.0585322,-0.1043738,0.0236015,-0.2654
 996,0.0078024,-0.195383,-0.244025,0.0308417,-0.0635979,-0.0982779,-0.0
 156404,-0.027621,-0.1016575,0.0169656,-0.1112292,0.1879095,0.0259056,0
 .0207682,-0.0040182,0.1562801,-0.0376761,0.0857857,-0.0079092,0.320463
 2,0.2392004,0.0285588,0.0148908,-0.0000701,0.1676977,-0.0705467,0.0916
 371,-0.103118,0.2537872,-0.0622787,0.0138477,-0.0685385,0.0012789,0.09
 03495,0.0004897,-0.0759019,-0.0037538,0.078523,0.0303078,0.0627895,-0.
 030524,0.0515805,-0.0737013,0.0058426,-0.0340502,0.0094594,0.1016388,0
 .0484846,-0.0559111,-0.0364526,-0.0494036,0.0093761,-0.0302301,-0.0339
 596,-0.0322839,0.1060547,0.1010018,0.0299425,-0.0097529,0.0525108,0.07
 02075,0.018362,0.0125881,0.0166948,0.1274435\Polar=115.050023,5.241771
 4,102.4258076,27.962037,10.3819146,46.3816327\PG=C01 [X(C7H6Cl1N1O1)]\
 NImag=0\\0.71970518,0.00815159,0.74397824,-0.07599108,0.26096666,0.168
 91717,-0.31562226,-0.01698883,-0.00702113,0.72139138,-0.00426120,-0.12
 840872,-0.02974679,-0.17924228,0.81471158,-0.03932590,-0.02812290,-0.0
 6325881,0.00633697,0.14948263,0.24824482,-0.05820648,0.07075404,0.0103
 6841,-0.24542443,0.23980657,0.04852469,0.28719914,0.04837559,-0.007602
 77,0.00143713,0.24151481,-0.53213827,-0.10353793,-0.30384421,0.6009355
 8,0.00716349,0.00059826,0.02324167,0.04780846,-0.10157484,-0.09932663,
 -0.05721836,0.12516978,0.06302244,-0.02448646,-0.03427174,-0.01119635,
 -0.13032787,-0.03081567,-0.02135184,0.01993225,0.01407257,0.00434622,0
 .60958571,-0.01100640,0.00477545,-0.00395484,-0.04090050,-0.14309618,-
 0.01660434,0.00061887,-0.05756381,-0.01979218,-0.05462581,0.64694269,-
 0.00745186,-0.00512940,0.00777727,-0.01864145,-0.01699547,-0.08577765,
 -0.00030090,-0.01860560,0.01408813,0.16663492,0.03007768,0.21225762,-0
 .00435028,-0.00045395,-0.00257394,0.01766977,-0.00743325,0.00677415,-0
 .00152002,-0.00741080,-0.00359970,-0.15337577,0.10158435,-0.02706814,0
 .64884379,0.00082216,-0.00215891,0.00127113,0.00294527,-0.02600628,-0.
 00132508,-0.00080885,-0.00004399,-0.00066043,0.05142777,-0.28418777,0.
 00394573,-0.01522174,0.66384767,-0.00084074,-0.00006771,-0.00070668,0.
 00706335,-0.00696742,0.00275958,-0.00198610,-0.00333807,0.00034964,-0.
 03428340,0.02507038,-0.07197820,0.22135750,0.03567802,0.22758799,-0.00
 046881,0.00025439,0.00042208,0.00210716,0.00409374,-0.00254986,-0.0001
 4840,-0.00087609,0.00093810,0.05251628,-0.03168234,0.01441580,-0.17435
 537,-0.05629914,-0.05250234,0.60593403,-0.00065524,0.00138863,-0.00044
 922,0.00720450,-0.00105604,0.00196901,-0.00129764,-0.00251933,-0.00102
 584,0.01241429,-0.05721964,-0.00087986,-0.11818811,-0.26838956,-0.0658
 8026,-0.04140527,0.72969006,-0.00018963,-0.00050261,-0.00049117,-0.002
 04530,0.00096055,0.00613065,0.00026966,0.00076107,-0.00080505,0.020615
 47,-0.01884207,0.01356756,-0.05790506,-0.04018495,-0.08628613,0.194822
 87,0.03163352,0.21223061,-0.00043519,-0.00087811,-0.00013434,-0.002115
 37,0.00187765,-0.00009972,0.00041864,0.00029528,0.00002344,-0.03883498
 ,0.02930022,-0.01011565,-0.02943100,-0.06458076,-0.02078476,-0.3016926
 0,0.05173877,-0.09640383,0.62084199,-0.00019917,0.00015050,-0.00008772
 ,0.00288378,-0.00099897,0.00020965,-0.00145798,-0.00054609,-0.00019312
 ,0.02845702,-0.02271787,0.00931983,-0.01953129,0.04406035,-0.00489861,
 -0.01271349,-0.13118665,-0.01082744,0.02482491,0.71443930,-0.00033315,
 -0.00034115,-0.00001235,-0.00020200,0.00082830,-0.00085593,0.00008838,
 0.00002472,0.00013606,-0.01159665,0.01061238,-0.00817865,-0.01593896,-
 0.02359312,-0.00261487,-0.10115986,0.01534857,-0.09838555,0.20412701,0
 .06393985,0.21612216,0.00137389,-0.00052522,0.00048615,-0.00598103,0.0
 0043076,-0.00443772,0.00238368,0.00182401,0.00140937,-0.02896701,-0.01
 657044,-0.01535424,-0.00060991,-0.00496163,0.00138034,-0.01771448,0.02
 828542,-0.00702104,-0.13130016,0.10266139,-0.01945850,0.45454866,-0.00
 084856,-0.00006102,-0.00034645,0.00074455,0.00446193,0.00064357,0.0008
 6613,-0.00046652,0.00000493,-0.06908999,0.04030344,-0.02308423,-0.0050
 7967,-0.07105073,-0.00856126,0.08120518,0.02477945,0.03442892,0.040338
 37,-0.30169308,-0.00651630,-0.00077794,0.65711984,0.00040035,-0.000610
 13,-0.00034488,-0.00575455,-0.00022017,0.00556406,0.00137829,0.0013672
 4,0.00016576,-0.01875586,-0.00381624,-0.00253124,0.00152284,-0.0080357
 0,-0.00604768,-0.00218635,0.01307984,0.00578891,-0.02465372,0.01880918
 ,-0.06810206,0.13627788,0.05103808,0.17919315,-0.00101865,-0.00123436,
 -0.00032648,-0.00016867,0.00392965,0.00041066,0.00017685,-0.00175150,-
 0.00045086,0.00334270,-0.00529224,-0.00157654,-0.00222482,0.00017501,-
 0.00031278,0.00370752,0.00413359,-0.00007601,-0.03119500,0.00374337,-0
 .01381711,-0.13628799,0.01204910,-0.04485474,0.19770669,-0.00014082,-0
 .00017915,-0.00008699,-0.00055443,0.00021822,-0.00021556,-0.00002992,0
 .00012717,-0.00000142,0.00108966,-0.00337519,-0.00047841,0.00034801,0.
 00180409,0.00031367,-0.00182358,-0.00425036,-0.00157534,0.02894451,-0.
 00002316,0.01138108,0.01140425,-0.04081209,0.00297885,-0.01848186,0.03
 852927,-0.00047293,-0.00053782,-0.00021264,-0.00007433,0.00162854,0.00
 029981,-0.00003526,-0.00078878,-0.00011333,-0.00089311,-0.00287649,0.0
 0431809,-0.00064867,0.00023714,-0.00061518,-0.00061321,0.00076221,0.00
 459555,-0.01145962,0.00123265,-0.00077159,-0.04479569,0.00303943,-0.04
 076633,0.07363703,-0.00497897,0.04115238,0.00239187,-0.00078146,0.0000
 6686,-0.01697275,-0.01699095,-0.01161469,-0.00549052,0.00549680,0.0002
 0970,-0.28607840,0.00011862,-0.08923032,-0.01707082,0.07091220,-0.0024
 5779,-0.04602557,-0.02401235,-0.01887569,0.05408265,-0.02998827,0.0167
 5457,-0.15269234,-0.05471456,-0.04365967,-0.03440970,-0.02156938,-0.01
 732954,0.60521444,-0.00229599,-0.00598967,-0.00147303,-0.02855439,0.00
 623312,-0.01149349,-0.00156338,-0.00198576,-0.00050612,0.05479107,-0.1
 2591723,0.01277101,0.02994874,0.02256395,0.01475783,-0.02261149,-0.013
 16460,-0.00993165,0.01238115,-0.05201301,-0.00040409,-0.11494173,-0.27
 614482,-0.06722319,0.00247450,0.00536398,0.00134509,-0.04257608,0.7493
 9558,0.00046857,-0.00113063,0.00108578,-0.01021863,-0.00484077,-0.0026
 0558,-0.00323908,0.00130128,-0.00042052,-0.08316524,-0.00849535,-0.096
 99351,-0.00700696,0.03035941,0.00789731,-0.01887216,-0.01027083,-0.013
 02713,0.01975663,-0.01728876,0.01315998,-0.04878682,-0.04407233,-0.084
 75733,-0.01513703,-0.00861740,-0.00298977,0.18449467,0.04537788,0.2100
 6078,-0.15102311,-0.15108714,-0.01777830,-0.01489739,-0.04232866,-0.00
 587410,0.00636044,0.00379979,0.00041979,-0.00591978,0.00300162,-0.0005
 0535,0.00000089,0.00113554,-0.00030402,0.00026736,-0.00020952,0.000062
 83,0.00004022,0.00009841,0.00005862,-0.00037671,0.00027984,-0.00022319
 ,-0.00011521,-0.00008875,-0.00005802,-0.00026013,-0.00175790,-0.000250
 62,0.15235472,-0.15784055,-0.36116168,-0.07000232,-0.00023257,0.006030
 96,0.00184951,0.00085078,-0.00118695,0.00081879,0.00126417,0.00099656,
 -0.00117955,0.00020450,0.00015013,0.00007522,-0.00013361,0.00000204,0.
 00003853,0.00010313,-0.00005087,0.00000619,-0.00013820,0.00023421,0.00
 013986,0.00004591,-0.00001352,-0.00000208,0.00001806,-0.00006745,0.000
 10892,0.16863899,0.36767159,-0.00323157,-0.04832645,-0.02034210,-0.010
 54434,-0.00297517,-0.00016742,0.00329764,-0.00081258,-0.00550542,-0.00
 156095,-0.00096459,0.00449886,0.00002904,-0.00002039,-0.00024311,0.000
 25653,0.00011374,0.00023966,-0.00017846,0.00018128,-0.00002447,0.00003
 395,-0.00026766,-0.00044274,0.00011112,0.00003362,-0.00000273,0.000135
 63,0.00031559,0.00048799,0.02280781,0.06511771,0.02646307,-0.16892582,
 0.12970926,0.10295284,-0.00444965,0.02834479,0.01997464,-0.00848349,0.
 00017689,-0.00168909,-0.00009122,-0.00040982,-0.00125511,-0.00024753,0
 .00023288,-0.00031406,-0.00011992,-0.00071085,-0.00036085,0.00053715,-
 0.00023466,0.00025396,-0.00022666,0.00055588,0.00006196,0.00034017,-0.
 00004600,0.00014497,-0.00030565,-0.00008437,-0.00028708,0.01320639,-0.
 01264658,-0.01118087,0.16812561,0.12116074,-0.24404135,-0.15666709,0.0
 0826064,-0.00076303,0.00535754,-0.00093436,0.00437071,-0.00210046,-0.0
 0113485,-0.00079204,0.00018108,-0.00249232,-0.00057063,-0.00086228,0.0
 0034546,-0.00037831,0.00020467,-0.00020012,0.00009546,-0.00001880,-0.0
 0003662,-0.00048713,-0.00017288,0.00019643,-0.00003113,0.00007527,0.00
 072763,0.00000357,0.00053705,0.01887972,-0.01278226,-0.01209439,-0.143
 97863,0.25755180,0.11894623,-0.17684632,-0.11651894,-0.00877054,0.0087
 6022,-0.00438081,-0.00225423,-0.00085645,0.00534023,0.00030762,0.00066
 151,-0.00041144,0.00134800,-0.00124699,0.00077525,-0.00061505,0.000231
 81,-0.00043336,0.00006177,-0.00016773,-0.00000686,-0.00017642,0.000177
 59,0.00008954,-0.00007571,0.00002099,-0.00003283,-0.00028447,0.0000348
 9,-0.00017349,0.00137428,0.00330058,-0.00501017,-0.10922387,0.16458585
 ,0.12077397,0.00004819,-0.00182820,0.00066838,-0.00306101,-0.00131993,
 0.00070192,0.00075182,0.00058479,0.00005962,-0.00840534,0.00094216,-0.
 00440369,-0.28677174,0.02967480,-0.11005954,-0.01147059,0.00386655,-0.
 00578225,0.00125439,-0.00300649,-0.00294237,0.00074451,-0.00022434,0.0
 0037251,-0.00024941,-0.00001890,0.00029250,0.00172628,0.00266603,-0.00
 188764,0.00043844,-0.00012221,0.00016905,0.00034817,-0.00099060,-0.000
 37073,0.30550366,-0.00155732,-0.00036322,-0.00055235,0.00245722,0.0011
 3705,0.00113852,-0.00090453,0.00054034,-0.00003517,0.02664610,0.002166
 76,0.01108001,0.03017710,-0.06372726,0.01168687,-0.02514221,0.00718826
 ,-0.01060142,-0.00203154,-0.00401386,-0.00167151,-0.00017448,-0.001413
 04,-0.00014099,-0.00000461,0.00026245,0.00008153,0.00155514,-0.0053641
 9,-0.00036391,-0.00034845,0.00010738,-0.00027181,-0.00111670,-0.002173
 48,0.00132793,-0.03005394,0.06423421,-0.00026428,0.00020165,0.00057037
 ,0.00112140,0.00042927,-0.00335539,0.00023190,-0.00073853,0.00049067,-
 0.00190059,-0.00086853,0.00072691,-0.11241094,0.01217667,-0.08397696,-
 0.00719605,0.00201820,-0.00051464,-0.00251839,-0.00178819,0.00580031,0
 .00045246,-0.00007251,-0.00010361,0.00014307,0.00010880,-0.00078704,-0
 .00175472,-0.00007611,0.00536133,0.00027747,-0.00019333,-0.00012785,0.
 00073854,0.00088465,0.00007555,0.12203522,-0.01227712,0.07845365,-0.00
 008814,0.00002519,-0.00006882,0.00083405,-0.00032657,0.00013538,-0.000
 15648,-0.00046775,-0.00008017,-0.00063292,-0.00251001,-0.00327924,0.01
 068424,-0.01672794,0.00226583,-0.10190952,0.10403135,-0.01959683,-0.00
 822391,0.02829940,-0.00223476,-0.00258992,-0.00075077,-0.00411244,-0.0
 0121619,0.00104016,-0.00042602,-0.00079253,-0.00046169,-0.00012310,-0.
 00001216,-0.00001195,-0.00000266,0.00000443,-0.00001670,0.00001302,0.0
 0016104,0.00026283,0.00169561,0.10360992,-0.00041320,-0.00007955,-0.00
 021499,0.00159788,0.00033328,0.00063224,-0.00020916,-0.00088366,-0.000
 28924,-0.00393344,-0.00230603,-0.00222549,0.01229043,-0.01855668,0.003
 60857,0.10411172,-0.29272000,0.02284762,-0.00079766,0.00127212,-0.0003
 9114,0.00007558,0.00154306,-0.00036094,-0.00006979,0.00001086,-0.00003
 833,-0.00059327,0.00048194,-0.00014836,-0.00001268,-0.00000240,0.00002
 950,0.00006457,-0.00004336,0.00002068,-0.00029790,0.00095106,0.0002638
 6,-0.11194618,0.30931595,-0.00001349,0.00007253,-0.00007535,0.00025987
 ,-0.00025886,0.00070374,0.00010940,-0.00010876,-0.00032857,-0.00325180
 ,-0.00205401,0.00537025,0.00438159,-0.00806735,0.00344144,-0.02009174,
 0.02294762,-0.04212145,-0.00414889,0.01135241,0.00175979,-0.00393908,-
 0.00052383,0.00549609,-0.00055549,0.00041474,-0.00004465,-0.00043660,-
 0.00035513,-0.00071312,-0.00000686,0.00001686,0.00002773,-0.00000169,-
 0.00004631,0.00004654,0.00185830,0.00048227,-0.00304671,0.02369765,-0.
 02419890,0.03340712,0.00002557,-0.00015670,0.00003181,-0.00032105,0.00
 010287,0.00031970,0.00017549,-0.00008955,-0.00001746,-0.00062049,0.000
 75497,0.00001840,-0.00325477,0.00217564,-0.00418958,-0.00989812,-0.024
 61411,-0.00736853,-0.13296204,-0.12119248,-0.05065548,0.00865900,0.012
 21564,0.00354295,0.00081140,0.00049372,0.00137989,-0.00016740,0.003022
 89,-0.00200387,0.00003209,-0.00000366,0.00002273,0.00005424,0.00008717
 ,-0.00008806,-0.00060320,-0.00120873,-0.00034397,0.00036484,0.00010071
 ,0.00182791,0.13713753,-0.00010901,-0.00000154,-0.00005631,0.00015639,
 -0.00010785,0.00008007,-0.00021567,0.00001471,-0.00008893,0.00093670,0
 .00009586,0.00041994,0.00148501,0.00110732,0.00009327,0.00341691,0.007
 45899,0.00177343,-0.11845532,-0.24505598,-0.06715494,-0.01740791,-0.01
 881439,-0.00898160,-0.00047026,0.00117721,0.00014305,0.00388644,-0.003
 71114,0.00066422,-0.00000541,0.00000298,0.00001437,-0.00000695,0.00000
 362,0.00001824,0.00028171,0.00025895,0.00011409,-0.00043930,0.00072736
 ,0.00024001,0.12780416,0.25751393,0.00005103,0.00005654,0.00009189,0.0
 0026789,0.00005143,-0.00080129,0.00000259,-0.00014490,0.00005710,-0.00
 006383,0.00052001,-0.00043377,-0.00413342,0.00031876,0.00551449,-0.004
 97970,-0.00959468,0.00006900,-0.05039290,-0.06809768,-0.06245046,0.000
 83360,0.00286556,0.00326501,0.00130176,0.00053170,-0.00191560,-0.00189
 130,0.00028266,0.00490468,0.00000793,-0.00001510,-0.00002390,0.0000635
 9,0.00001315,-0.00002522,-0.00030724,-0.00045331,0.00000219,0.00179710
 ,0.00039977,-0.00322699,0.05735352,0.07311438,0.05473101,0.00108049,-0
 .00068875,0.00009391,-0.00266090,0.00413247,0.00207572,0.00203151,-0.0
 0170062,0.00067746,-0.00763671,0.02667673,-0.00188664,-0.00398666,-0.0
 0090120,-0.00403190,-0.00072897,-0.00058137,-0.00014580,-0.00098479,-0
 .00264445,-0.00294369,0.00903647,-0.01676884,0.00064374,0.00080030,-0.
 00056666,0.00135201,-0.10314943,0.10956263,-0.01374164,-0.00009606,0.0
 0000378,-0.00016466,0.00023378,0.00012641,-0.00019185,-0.00041522,0.00
 144412,-0.00030673,-0.00003674,0.00003239,0.00031092,0.00056694,-0.000
 85749,0.00008937,0.10594599,0.00081737,-0.00024524,-0.00003682,-0.0012
 9205,-0.00055082,-0.00006344,-0.00163070,-0.00105136,-0.00032402,0.002
 77214,0.00189499,0.00078272,-0.00022700,0.00115832,-0.00070818,-0.0007
 4017,0.00037706,-0.00018284,-0.00286048,-0.00171821,-0.00205006,0.0108
 5276,-0.01749909,0.00214881,0.00055705,0.00119133,0.00067756,0.1085114
 5,-0.29968428,0.01687958,0.00000460,0.00006926,-0.00007276,0.00015031,
 0.00003756,-0.00002279,-0.00015351,0.00020860,-0.00018288,-0.00000007,
 -0.00004396,0.00008671,0.00050747,-0.00067004,0.00015172,-0.11726917,0
 .31652588,0.00108496,-0.00028052,0.00027879,0.00041433,0.00143856,-0.0
 0317315,0.00076296,-0.00112961,-0.00039218,-0.00388461,0.01132667,0.00
 369979,-0.00412733,-0.00085286,0.00414313,-0.00008905,-0.00000382,-0.0
 0055746,-0.00307857,-0.00169560,0.00442449,0.00309577,-0.00875350,0.00
 353337,0.00157911,0.00017063,-0.00211412,-0.01412663,0.01657785,-0.041
 27739,-0.00000829,-0.00007978,0.00017261,0.00012213,0.00012295,-0.0001
 0796,-0.00040404,0.00057047,0.00043123,0.00031943,0.00006516,-0.000695
 85,0.00017003,-0.00039329,0.00024188,0.01816979,-0.01708331,0.03139283
 \\-0.00000603,0.00000449,0.00000339,0.00000342,-0.00000113,0.00000056,
 0.00000069,-0.00000294,0.00000184,-0.00000157,-0.00000287,-0.00000252,
 0.00000076,0.00001150,0.00000230,-0.00000112,-0.00001022,0.00000028,-0
 .00000703,0.00000533,-0.00000260,0.00001303,-0.00000207,0.00000213,-0.
 00000548,0.,-0.00000184,-0.00000198,0.00000343,0.00000089,0.00000348,-
 0.00000232,-0.00000166,0.00000155,0.00000019,-0.00000045,-0.00000051,-
 0.00000157,-0.00000056,0.00000032,0.00000118,-0.00000071,0.00000127,-0
 .00000133,0.00000073,-0.00000079,-0.00000167,-0.00000179\\\@


 ... UNTIL SCIENCE IS MIXED WITH EMOTION AND APPEALS TO THE HEART AND
 IMAGINATION , IT IS LIKE DEAD INORGANIC MATTER; AND WHEN IT IS SO MIXED
 AND SO TRANSFORMED IT IS LITERATURE.

                                  -- JOHN BURROUGHS
 Job cpu time:  0 days  0 hours 34 minutes 24.8 seconds.
 File lengths (MBytes):  RWF=     65 Int=      0 D2E=      0 Chk=      3 Scr=      1
 Normal termination of Gaussian 09 at Fri Aug 24 15:08:49 2018.
