 Entering Gaussian System, Link 0=g09
 Initial command:
 /home/fb_chem/chemsoft/lx24-amd64/Gaussian_09_C.01_NBO_3.1_64_istanbul-64/g09/l1.exe /local/2397383.1.parallel/Gau-29862.inp -scrdir=/local/2397383.1.parallel/
 Entering Link 1 = /home/fb_chem/chemsoft/lx24-amd64/Gaussian_09_C.01_NBO_3.1_64_istanbul-64/g09/l1.exe PID=     29863.
  
 Copyright (c) 1988,1990,1992,1993,1995,1998,2003,2009,2011,
            Gaussian, Inc.  All Rights Reserved.
  
 This is part of the Gaussian(R) 09 program.  It is based on
 the Gaussian(R) 03 system (copyright 2003, Gaussian, Inc.),
 the Gaussian(R) 98 system (copyright 1998, Gaussian, Inc.),
 the Gaussian(R) 94 system (copyright 1995, Gaussian, Inc.),
 the Gaussian 92(TM) system (copyright 1992, Gaussian, Inc.),
 the Gaussian 90(TM) system (copyright 1990, Gaussian, Inc.),
 the Gaussian 88(TM) system (copyright 1988, Gaussian, Inc.),
 the Gaussian 86(TM) system (copyright 1986, Carnegie Mellon
 University), and the Gaussian 82(TM) system (copyright 1983,
 Carnegie Mellon University). Gaussian is a federally registered
 trademark of Gaussian, Inc.
  
 This software contains proprietary and confidential information,
 including trade secrets, belonging to Gaussian, Inc.
  
 This software is provided under written license and may be
 used, copied, transmitted, or stored only in accord with that
 written license.
  
 The following legend is applicable only to US Government
 contracts under FAR:
  
                    RESTRICTED RIGHTS LEGEND
  
 Use, reproduction and disclosure by the US Government is
 subject to restrictions as set forth in subparagraphs (a)
 and (c) of the Commercial Computer Software - Restricted
 Rights clause in FAR 52.227-19.
  
 Gaussian, Inc.
 340 Quinnipiac St., Bldg. 40, Wallingford CT 06492
  
  
 ---------------------------------------------------------------
 Warning -- This program may not be used in any manner that
 competes with the business of Gaussian, Inc. or will provide
 assistance to any competitor of Gaussian, Inc.  The licensee
 of this program is prohibited from giving any competitor of
 Gaussian, Inc. access to this program.  By using this program,
 the user acknowledges that Gaussian, Inc. is engaged in the
 business of creating and licensing software in the field of
 computational chemistry and represents and warrants to the
 licensee that it is not a competitor of Gaussian, Inc. and that
 it will not use this program in any manner prohibited above.
 ---------------------------------------------------------------
  

 Cite this work as:
 Gaussian 09, Revision C.01,
 M. J. Frisch, G. W. Trucks, H. B. Schlegel, G. E. Scuseria, 
 M. A. Robb, J. R. Cheeseman, G. Scalmani, V. Barone, B. Mennucci, 
 G. A. Petersson, H. Nakatsuji, M. Caricato, X. Li, H. P. Hratchian, 
 A. F. Izmaylov, J. Bloino, G. Zheng, J. L. Sonnenberg, M. Hada, 
 M. Ehara, K. Toyota, R. Fukuda, J. Hasegawa, M. Ishida, T. Nakajima, 
 Y. Honda, O. Kitao, H. Nakai, T. Vreven, J. A. Montgomery, Jr., 
 J. E. Peralta, F. Ogliaro, M. Bearpark, J. J. Heyd, E. Brothers, 
 K. N. Kudin, V. N. Staroverov, T. Keith, R. Kobayashi, J. Normand, 
 K. Raghavachari, A. Rendell, J. C. Burant, S. S. Iyengar, J. Tomasi, 
 M. Cossi, N. Rega, J. M. Millam, M. Klene, J. E. Knox, J. B. Cross, 
 V. Bakken, C. Adamo, J. Jaramillo, R. Gomperts, R. E. Stratmann, 
 O. Yazyev, A. J. Austin, R. Cammi, C. Pomelli, J. W. Ochterski, 
 R. L. Martin, K. Morokuma, V. G. Zakrzewski, G. A. Voth, 
 P. Salvador, J. J. Dannenberg, S. Dapprich, A. D. Daniels, 
 O. Farkas, J. B. Foresman, J. V. Ortiz, J. Cioslowski, 
 and D. J. Fox, Gaussian, Inc., Wallingford CT, 2010.
 
 ******************************************
 Gaussian 09:  AM64L-G09RevC.01 23-Sep-2011
                16-Feb-2018 
 ******************************************
 %nprocs=4
 Will use up to    4 processors via shared memory.
 %chk=frag31-conf1.chk
 ---------------------------------------------------------
 #B3LYP/6-31G* Integral=(Grid=UltraFine) freq Opt pop=none
 ---------------------------------------------------------
 1/14=-1,18=20,19=15,26=3,38=1/1,3;
 2/9=110,12=2,17=6,18=5,40=1/2;
 3/5=1,6=6,7=1,11=2,16=1,25=1,30=1,71=1,74=-5,75=-5/1,2,3;
 4//1;
 5/5=2,38=5/2;
 7//1,2,3,16;
 1/14=-1,18=20,19=15/3(2);
 2/9=110/2;
 99//99;
 2/9=110/2;
 3/5=1,6=6,7=1,11=2,16=1,25=1,30=1,71=1,74=-5,75=-5/1,2,3;
 4/5=5,16=3/1;
 5/5=2,38=5/2;
 7//1,2,3,16;
 1/14=-1,18=20,19=15/3(-5);
 2/9=110/2;
 99/9=1/99;
 -----------------------------
 Optimization for frag31-conf1
 -----------------------------
 Charge =  1 Multiplicity = 1
 Symbolic Z-Matrix:
 C                     1.69101  -0.60613   0.01908 
 C                     0.52602  -0.32947   0.71228 
 C                     2.72279  -1.26224   0.67554 
 C                     0.41873  -0.70885   2.04323 
 C                     2.58715  -1.64639   2.02285 
 C                     5.64221  -0.75936   2.85498 
 C                     6.38897   0.15465   3.78748 
 C                     1.23772  -1.71167   4.09144 
 C                     3.73833  -2.34173   2.71503 
 N                     1.42938  -1.34566   2.67744 
 N                     4.59092  -1.41747   3.44237 
 O                     5.93528  -0.87722   1.66723 
 H                     1.79828  -0.3124   -1.02267 
 H                    -0.30028   0.18243   0.22685 
 H                     3.64711  -1.47746   0.14233 
 H                    -0.48128  -0.50383   2.61361 
 H                     7.40755   0.29985   3.41728 
 H                     5.87663   1.11929   3.8325 
 H                     6.44277  -0.27424   4.79212 
 H                     1.23226  -2.8022    4.1611 
 H                     2.04721  -1.27187   4.67767 
 H                     0.28473  -1.3224    4.459 
 H                     3.37516  -3.0879    3.42737 
 H                     4.34473  -2.88519   1.98054 
 H                     4.40902  -1.26683   4.4302 
 

 GradGradGradGradGradGradGradGradGradGradGradGradGradGradGradGradGradGrad
 Berny optimization.
 Initialization pass.
                           ----------------------------
                           !    Initial Parameters    !
                           ! (Angstroms and Degrees)  !
 --------------------------                            --------------------------
 ! Name  Definition              Value          Derivative Info.                !
 --------------------------------------------------------------------------------
 ! R1    R(1,2)                  1.3836         estimate D2E/DX2                !
 ! R2    R(1,3)                  1.3878         estimate D2E/DX2                !
 ! R3    R(1,13)                 1.0877         estimate D2E/DX2                !
 ! R4    R(2,4)                  1.3881         estimate D2E/DX2                !
 ! R5    R(2,14)                 1.0865         estimate D2E/DX2                !
 ! R6    R(3,5)                  1.4076         estimate D2E/DX2                !
 ! R7    R(3,15)                 1.0886         estimate D2E/DX2                !
 ! R8    R(4,10)                 1.3525         estimate D2E/DX2                !
 ! R9    R(4,16)                 1.0851         estimate D2E/DX2                !
 ! R10   R(5,9)                  1.5126         estimate D2E/DX2                !
 ! R11   R(5,10)                 1.3636         estimate D2E/DX2                !
 ! R12   R(6,7)                  1.5042         estimate D2E/DX2                !
 ! R13   R(6,11)                 1.3724         estimate D2E/DX2                !
 ! R14   R(6,12)                 1.229          estimate D2E/DX2                !
 ! R15   R(7,17)                 1.0934         estimate D2E/DX2                !
 ! R16   R(7,18)                 1.0932         estimate D2E/DX2                !
 ! R17   R(7,19)                 1.0937         estimate D2E/DX2                !
 ! R18   R(8,10)                 1.4731         estimate D2E/DX2                !
 ! R19   R(8,20)                 1.0928         estimate D2E/DX2                !
 ! R20   R(8,21)                 1.092          estimate D2E/DX2                !
 ! R21   R(8,22)                 1.0931         estimate D2E/DX2                !
 ! R22   R(9,11)                 1.4526         estimate D2E/DX2                !
 ! R23   R(9,23)                 1.0937         estimate D2E/DX2                !
 ! R24   R(9,24)                 1.0966         estimate D2E/DX2                !
 ! R25   R(11,25)                1.0157         estimate D2E/DX2                !
 ! A1    A(2,1,3)              118.9176         estimate D2E/DX2                !
 ! A2    A(2,1,13)             120.5914         estimate D2E/DX2                !
 ! A3    A(3,1,13)             120.4908         estimate D2E/DX2                !
 ! A4    A(1,2,4)              119.3943         estimate D2E/DX2                !
 ! A5    A(1,2,14)             120.7128         estimate D2E/DX2                !
 ! A6    A(4,2,14)             119.8926         estimate D2E/DX2                !
 ! A7    A(1,3,5)              120.6743         estimate D2E/DX2                !
 ! A8    A(1,3,15)             119.5416         estimate D2E/DX2                !
 ! A9    A(5,3,15)             119.7837         estimate D2E/DX2                !
 ! A10   A(2,4,10)             121.3688         estimate D2E/DX2                !
 ! A11   A(2,4,16)             121.096          estimate D2E/DX2                !
 ! A12   A(10,4,16)            117.5352         estimate D2E/DX2                !
 ! A13   A(3,5,9)              119.3505         estimate D2E/DX2                !
 ! A14   A(3,5,10)             118.7594         estimate D2E/DX2                !
 ! A15   A(9,5,10)             121.8651         estimate D2E/DX2                !
 ! A16   A(7,6,11)             113.976          estimate D2E/DX2                !
 ! A17   A(7,6,12)             122.6152         estimate D2E/DX2                !
 ! A18   A(11,6,12)            123.3892         estimate D2E/DX2                !
 ! A19   A(6,7,17)             109.4667         estimate D2E/DX2                !
 ! A20   A(6,7,18)             109.2108         estimate D2E/DX2                !
 ! A21   A(6,7,19)             110.8301         estimate D2E/DX2                !
 ! A22   A(17,7,18)            109.4718         estimate D2E/DX2                !
 ! A23   A(17,7,19)            108.4969         estimate D2E/DX2                !
 ! A24   A(18,7,19)            109.3453         estimate D2E/DX2                !
 ! A25   A(10,8,20)            108.0468         estimate D2E/DX2                !
 ! A26   A(10,8,21)            108.5902         estimate D2E/DX2                !
 ! A27   A(10,8,22)            110.3477         estimate D2E/DX2                !
 ! A28   A(20,8,21)            111.8034         estimate D2E/DX2                !
 ! A29   A(20,8,22)            109.2445         estimate D2E/DX2                !
 ! A30   A(21,8,22)            108.8049         estimate D2E/DX2                !
 ! A31   A(5,9,11)             112.5406         estimate D2E/DX2                !
 ! A32   A(5,9,23)             111.0372         estimate D2E/DX2                !
 ! A33   A(5,9,24)             110.0101         estimate D2E/DX2                !
 ! A34   A(11,9,23)            107.6301         estimate D2E/DX2                !
 ! A35   A(11,9,24)            109.0339         estimate D2E/DX2                !
 ! A36   A(23,9,24)            106.3651         estimate D2E/DX2                !
 ! A37   A(4,10,5)             120.8782         estimate D2E/DX2                !
 ! A38   A(4,10,8)             118.0262         estimate D2E/DX2                !
 ! A39   A(5,10,8)             121.0943         estimate D2E/DX2                !
 ! A40   A(6,11,9)             122.7118         estimate D2E/DX2                !
 ! A41   A(6,11,25)            118.8388         estimate D2E/DX2                !
 ! A42   A(9,11,25)            118.4402         estimate D2E/DX2                !
 ! D1    D(3,1,2,4)              0.2156         estimate D2E/DX2                !
 ! D2    D(3,1,2,14)          -179.9728         estimate D2E/DX2                !
 ! D3    D(13,1,2,4)          -179.6357         estimate D2E/DX2                !
 ! D4    D(13,1,2,14)            0.1759         estimate D2E/DX2                !
 ! D5    D(2,1,3,5)              0.2712         estimate D2E/DX2                !
 ! D6    D(2,1,3,15)          -179.4825         estimate D2E/DX2                !
 ! D7    D(13,1,3,5)          -179.8774         estimate D2E/DX2                !
 ! D8    D(13,1,3,15)            0.3689         estimate D2E/DX2                !
 ! D9    D(1,2,4,10)            -0.0888         estimate D2E/DX2                !
 ! D10   D(1,2,4,16)           179.8681         estimate D2E/DX2                !
 ! D11   D(14,2,4,10)         -179.902          estimate D2E/DX2                !
 ! D12   D(14,2,4,16)            0.055          estimate D2E/DX2                !
 ! D13   D(1,3,5,9)           -179.1008         estimate D2E/DX2                !
 ! D14   D(1,3,5,10)            -0.8862         estimate D2E/DX2                !
 ! D15   D(15,3,5,9)             0.6523         estimate D2E/DX2                !
 ! D16   D(15,3,5,10)          178.8669         estimate D2E/DX2                !
 ! D17   D(2,4,10,5)            -0.5488         estimate D2E/DX2                !
 ! D18   D(2,4,10,8)           179.8572         estimate D2E/DX2                !
 ! D19   D(16,4,10,5)          179.4928         estimate D2E/DX2                !
 ! D20   D(16,4,10,8)           -0.1012         estimate D2E/DX2                !
 ! D21   D(3,5,9,11)            94.3578         estimate D2E/DX2                !
 ! D22   D(3,5,9,23)          -144.9139         estimate D2E/DX2                !
 ! D23   D(3,5,9,24)           -27.4406         estimate D2E/DX2                !
 ! D24   D(10,5,9,11)          -83.7992         estimate D2E/DX2                !
 ! D25   D(10,5,9,23)           36.9291         estimate D2E/DX2                !
 ! D26   D(10,5,9,24)          154.4023         estimate D2E/DX2                !
 ! D27   D(3,5,10,4)             1.0201         estimate D2E/DX2                !
 ! D28   D(3,5,10,8)          -179.3984         estimate D2E/DX2                !
 ! D29   D(9,5,10,4)           179.1877         estimate D2E/DX2                !
 ! D30   D(9,5,10,8)            -1.2308         estimate D2E/DX2                !
 ! D31   D(11,6,7,17)          155.9608         estimate D2E/DX2                !
 ! D32   D(11,6,7,18)          -84.2            estimate D2E/DX2                !
 ! D33   D(11,6,7,19)           36.3239         estimate D2E/DX2                !
 ! D34   D(12,6,7,17)          -25.598          estimate D2E/DX2                !
 ! D35   D(12,6,7,18)           94.2412         estimate D2E/DX2                !
 ! D36   D(12,6,7,19)         -145.2349         estimate D2E/DX2                !
 ! D37   D(7,6,11,9)           179.7288         estimate D2E/DX2                !
 ! D38   D(7,6,11,25)           -1.3885         estimate D2E/DX2                !
 ! D39   D(12,6,11,9)            1.3014         estimate D2E/DX2                !
 ! D40   D(12,6,11,25)        -179.8159         estimate D2E/DX2                !
 ! D41   D(20,8,10,4)          114.6823         estimate D2E/DX2                !
 ! D42   D(20,8,10,5)          -64.9108         estimate D2E/DX2                !
 ! D43   D(21,8,10,4)         -123.869          estimate D2E/DX2                !
 ! D44   D(21,8,10,5)           56.5379         estimate D2E/DX2                !
 ! D45   D(22,8,10,4)           -4.695          estimate D2E/DX2                !
 ! D46   D(22,8,10,5)          175.7119         estimate D2E/DX2                !
 ! D47   D(5,9,11,6)           -87.0159         estimate D2E/DX2                !
 ! D48   D(5,9,11,25)           94.0972         estimate D2E/DX2                !
 ! D49   D(23,9,11,6)          150.3196         estimate D2E/DX2                !
 ! D50   D(23,9,11,25)         -28.5673         estimate D2E/DX2                !
 ! D51   D(24,9,11,6)           35.3348         estimate D2E/DX2                !
 ! D52   D(24,9,11,25)        -143.5521         estimate D2E/DX2                !
 --------------------------------------------------------------------------------
 Trust Radius=3.00D-01 FncErr=1.00D-07 GrdErr=1.00D-06
 Number of steps in this run=    129 maximum allowed number of steps=    150.
 GradGradGradGradGradGradGradGradGradGradGradGradGradGradGradGradGradGrad

                          Input orientation:                          
 ---------------------------------------------------------------------
 Center     Atomic      Atomic             Coordinates (Angstroms)
 Number     Number       Type             X           Y           Z
 ---------------------------------------------------------------------
      1          6           0        1.691012   -0.606131    0.019079
      2          6           0        0.526020   -0.329471    0.712277
      3          6           0        2.722792   -1.262241    0.675538
      4          6           0        0.418731   -0.708850    2.043231
      5          6           0        2.587147   -1.646394    2.022851
      6          6           0        5.642211   -0.759355    2.854976
      7          6           0        6.388969    0.154647    3.787477
      8          6           0        1.237720   -1.711674    4.091436
      9          6           0        3.738333   -2.341726    2.715027
     10          7           0        1.429376   -1.345660    2.677435
     11          7           0        4.590916   -1.417475    3.442374
     12          8           0        5.935284   -0.877215    1.667231
     13          1           0        1.798284   -0.312401   -1.022669
     14          1           0       -0.300280    0.182432    0.226845
     15          1           0        3.647108   -1.477461    0.142328
     16          1           0       -0.481285   -0.503825    2.613605
     17          1           0        7.407546    0.299848    3.417276
     18          1           0        5.876628    1.119287    3.832496
     19          1           0        6.442765   -0.274239    4.792120
     20          1           0        1.232256   -2.802205    4.161100
     21          1           0        2.047213   -1.271871    4.677669
     22          1           0        0.284732   -1.322401    4.459004
     23          1           0        3.375160   -3.087903    3.427369
     24          1           0        4.344733   -2.885185    1.980544
     25          1           0        4.409021   -1.266827    4.430198
 ---------------------------------------------------------------------
                    Distance matrix (angstroms):
                    1          2          3          4          5
     1  C    0.000000
     2  C    1.383572   0.000000
     3  C    1.387800   2.386884   0.000000
     4  C    2.392999   1.388121   2.735968   0.000000
     5  C    2.429055   2.774912   1.407561   2.362505   0.000000
     6  C    4.865981   5.563396   3.677751   5.286419   3.288266
     7  C    6.070454   6.638178   5.013242   6.279472   4.561964
     8  C    4.244031   3.719640   3.751772   2.423127   2.470680
     9  C    3.804202   4.287090   2.521137   3.759967   1.512556
    10  N    2.771681   2.389674   2.384844   1.352459   1.363582
    11  N    4.559240   5.016030   3.342060   4.457227   2.466281
    12  O    4.561111   5.520154   3.384052   5.531915   3.453712
    13  H    1.087668   2.151507   2.154255   3.385274   3.417167
    14  H    2.151800   1.086490   3.380439   2.147236   3.861020
    15  H    2.144929   3.374006   1.088574   3.824476   2.165277
    16  H    3.385397   2.158730   3.820656   1.085076   3.327120
    17  H    6.711728   7.420812   5.648377   7.193678   5.382242
    18  H    5.919341   6.361107   5.058136   6.027619   4.663100
    19  H    6.743237   7.187214   5.635655   6.635832   4.941403
    20  H    4.710577   4.302042   4.091739   3.086960   2.782757
    21  H    4.719381   4.350458   4.058763   3.147890   2.734932
    22  H    4.712071   3.883568   4.501375   2.496069   3.367629
    23  H    4.540043   4.806066   3.366185   4.039332   2.161385
    24  H    4.010445   4.766838   2.639637   4.489305   2.150698
    25  H    5.223224   5.457039   4.115928   4.683094   3.042798
                    6          7          8          9         10
     6  C    0.000000
     7  C    1.504196   0.000000
     8  C    4.672825   5.487342   0.000000
     9  C    2.479563   3.795774   2.923104   0.000000
    10  N    4.257142   5.299121   1.473125   2.514925   0.000000
    11  N    1.372363   2.413226   3.428084   1.452642   3.253556
    12  O    1.229033   2.401253   5.351655   2.840645   4.641462
    13  H    5.478291   6.665585   5.331629   4.674647   3.859338
    14  H    6.565610   7.577924   4.570356   5.373344   3.366329
    15  H    3.443047   4.844449   4.632004   2.715521   3.370827
    16  H    6.133576   7.000854   2.568630   4.603623   2.088871
    17  H    2.134127   1.093448   6.524375   4.575389   6.244484
    18  H    2.130679   1.093184   5.440668   4.218964   5.214229
    19  H    2.151453   1.093685   5.445152   3.987828   5.545621
    20  H    5.032584   5.956028   1.092767   2.929777   2.088454
    21  H    4.063113   4.655990   1.091960   2.802934   2.094780
    22  H    5.620721   6.316196   1.093081   4.000980   2.117720
    23  H    3.299893   4.441493   2.627478   1.093666   2.717331
    24  H    2.639552   4.084665   3.935293   1.096601   3.369734
    25  H    2.063881   2.520689   3.220218   2.132379   3.457843
                   11         12         13         14         15
    11  N    0.000000
    12  O    2.291362   0.000000
    13  H    5.381132   4.966824   0.000000
    14  H    6.068206   6.486897   2.492011   0.000000
    15  H    3.432881   2.814493   2.476436   4.283021   0.000000
    16  H    5.220041   6.496723   4.295994   2.490048   4.909054
    17  H    3.298974   2.572098   7.179956   8.342854   5.293864
    18  H    2.870612   2.945817   6.500404   7.213363   5.033011
    19  H    2.560889   3.222740   7.442072   8.155915   5.557338
    20  H    3.703328   5.660693   5.778492   5.170598   4.872062
    21  H    2.831533   4.933111   5.785879   5.237896   4.813652
    22  H    4.425584   6.318301   5.775784   4.529673   5.473875
    23  H    2.066063   3.813065   5.476567   5.869183   3.668647
    24  H    2.086079   2.580690   4.703500   5.836256   2.418141
    25  H    1.015666   3.180450   6.120509   6.476577   4.360126
                   16         17         18         19         20
    16  H    0.000000
    17  H    7.970284   0.000000
    18  H    6.674073   1.785384   0.000000
    19  H    7.262307   1.774986   1.784182   0.000000
    20  H    3.257838   6.950555   6.087386   5.825651   0.000000
    21  H    3.353141   5.726435   4.593079   4.508797   1.809122
    22  H    2.159247   7.379117   6.133813   6.255476   1.782236
    23  H    4.712943   5.266602   4.911407   4.380577   2.282986
    24  H    5.418680   4.646445   4.670356   4.373070   3.801214
    25  H    5.272312   3.531520   2.864377   2.291797   3.538593
                   21         22         23         24         25
    21  H    0.000000
    22  H    1.776713   0.000000
    23  H    2.573843   3.705673   0.000000
    24  H    3.893053   5.006862   1.753416   0.000000
    25  H    2.374743   4.124764   2.321821   2.936668   0.000000
 Stoichiometry    C9H13N2O(1+)
 Framework group  C1[X(C9H13N2O)]
 Deg. of freedom    69
 Full point group                 C1      NOp   1
 Largest Abelian subgroup         C1      NOp   1
 Largest concise Abelian subgroup C1      NOp   1
                         Standard orientation:                         
 ---------------------------------------------------------------------
 Center     Atomic      Atomic             Coordinates (Angstroms)
 Number     Number       Type             X           Y           Z
 ---------------------------------------------------------------------
      1          6           0       -2.029717   -1.870069   -0.099418
      2          6           0       -2.929145   -0.980680   -0.660031
      3          6           0       -0.885220   -1.373451    0.508436
      4          6           0       -2.664708    0.380933   -0.605602
      5          6           0       -0.643384    0.012202    0.560467
      6          6           0        2.561105   -0.257179   -0.126103
      7          6           0        3.589435    0.181340   -1.132504
      8          6           0       -1.337431    2.315962   -0.001001
      9          6           0        0.623692    0.519690    1.212233
     10          7           0       -1.545921    0.857722   -0.013883
     11          7           0        1.694267    0.736328    0.254575
     12          8           0        2.491556   -1.411559    0.289940
     13          1           0       -2.214581   -2.941281   -0.136177
     14          1           0       -3.834704   -1.337535   -1.142813
     15          1           0       -0.166536   -2.064559    0.945308
     16          1           0       -3.349895    1.102616   -1.038132
     17          1           0        4.462955   -0.473389   -1.069881
     18          1           0        3.159625    0.120523   -2.135806
     19          1           0        3.910948    1.208397   -0.937746
     20          1           0       -1.375507    2.654222    1.037397
     21          1           0       -0.372469    2.533750   -0.463376
     22          1           0       -2.123028    2.817289   -0.572257
     23          1           0        0.446541    1.466189    1.730753
     24          1           0        0.964226   -0.191225    1.974579
     25          1           0        1.813790    1.666632   -0.135073
 ---------------------------------------------------------------------
 Rotational constants (GHZ):      1.6246316      0.5996984      0.4990840
 Standard basis: 6-31G(d) (6D, 7F)
 There are   206 symmetry adapted basis functions of A   symmetry.
 Integral buffers will be    131072 words long.
 Raffenetti 2 integral format.
 Two-electron integral symmetry is turned on.
   206 basis functions,   388 primitive gaussians,   206 cartesian basis functions
    44 alpha electrons       44 beta electrons
       nuclear repulsion energy       698.0326380053 Hartrees.
 NAtoms=   25 NActive=   25 NUniq=   25 SFac= 1.00D+00 NAtFMM=   60 NAOKFM=F Big=F
 One-electron integrals computed using PRISM.
 NBasis=   206 RedAO= T  NBF=   206
 NBsUse=   206 1.00D-06 NBFU=   206
 Harris functional with IExCor=  402 diagonalized for initial guess.
 ExpMin= 1.61D-01 ExpMax= 5.48D+03 ExpMxC= 8.25D+02 IAcc=3 IRadAn=         5 AccDes= 0.00D+00
 HarFok:  IExCor=  402 AccDes= 0.00D+00 IRadAn=         5 IDoV= 1
 ScaDFX=  1.000000  1.000000  1.000000  1.000000
 FoFCou: FMM=F IPFlag=           0 FMFlag=      100000 FMFlg1=           0
         NFxFlg=           0 DoJE=T BraDBF=F KetDBF=T FulRan=T
         Omega=  0.000000  0.000000  1.000000  0.000000  0.000000 ICntrl=     500 IOpCl=  0
         NMat0=    1 NMatS0=    1 NMatT0=    0 NMatD0=    1 NMtDS0=    0 NMtDT0=    0
         I1Cent=           4 NGrid=           0.
 Petite list used in FoFCou.
 Initial guess orbital symmetries:
       Occupied  (A) (A) (A) (A) (A) (A) (A) (A) (A) (A) (A) (A)
                 (A) (A) (A) (A) (A) (A) (A) (A) (A) (A) (A) (A)
                 (A) (A) (A) (A) (A) (A) (A) (A) (A) (A) (A) (A)
                 (A) (A) (A) (A) (A) (A) (A) (A)
       Virtual   (A) (A) (A) (A) (A) (A) (A) (A) (A) (A) (A) (A)
                 (A) (A) (A) (A) (A) (A) (A) (A) (A) (A) (A) (A)
                 (A) (A) (A) (A) (A) (A) (A) (A) (A) (A) (A) (A)
                 (A) (A) (A) (A) (A) (A) (A) (A) (A) (A) (A) (A)
                 (A) (A) (A) (A) (A) (A) (A) (A) (A) (A) (A) (A)
                 (A) (A) (A) (A) (A) (A) (A) (A) (A) (A) (A) (A)
                 (A) (A) (A) (A) (A) (A) (A) (A) (A) (A) (A) (A)
                 (A) (A) (A) (A) (A) (A) (A) (A) (A) (A) (A) (A)
                 (A) (A) (A) (A) (A) (A) (A) (A) (A) (A) (A) (A)
                 (A) (A) (A) (A) (A) (A) (A) (A) (A) (A) (A) (A)
                 (A) (A) (A) (A) (A) (A) (A) (A) (A) (A) (A) (A)
                 (A) (A) (A) (A) (A) (A) (A) (A) (A) (A) (A) (A)
                 (A) (A) (A) (A) (A) (A) (A) (A) (A) (A) (A) (A)
                 (A) (A) (A) (A) (A) (A)
 The electronic state of the initial guess is 1-A.
 Requested convergence on RMS density matrix=1.00D-08 within 128 cycles.
 Requested convergence on MAX density matrix=1.00D-06.
 Requested convergence on             energy=1.00D-06.
 No special actions if energy rises.
 Integral accuracy reduced to 1.0D-05 until final iterations.
 EnCoef did     2 forward-backward iterations
 Initial convergence to 1.0D-05 achieved.  Increase integral accuracy.
 SCF Done:  E(RB3LYP) =  -535.300106022     A.U. after   16 cycles
             Convg  =    0.6024D-08             -V/T =  2.0097
 Calling FoFJK, ICntrl=      2127 FMM=F ISym2X=0 I1Cent= 0 IOpClX= 0 NMat=1 NMatS=1 NMatT=0.
 ***** Axes restored to original set *****
 -------------------------------------------------------------------
 Center     Atomic                   Forces (Hartrees/Bohr)
 Number     Number              X              Y              Z
 -------------------------------------------------------------------
      1        6           0.005419006   -0.000018386   -0.005166641
      2        6          -0.010923174    0.002557431    0.006557685
      3        6           0.002081853   -0.004235830    0.006039100
      4        6          -0.006198291    0.006789853   -0.011014058
      5        6           0.007798964    0.002283593   -0.019940862
      6        6           0.013129151    0.006627536   -0.016364263
      7        6           0.005406783   -0.002363635    0.004253845
      8        6           0.001257252   -0.003290123    0.003803839
      9        6           0.002799583   -0.005357727    0.010234798
     10        7          -0.001550530    0.002640151   -0.003594041
     11        7          -0.009605260   -0.003489840    0.004502260
     12        8          -0.012066289   -0.005363664    0.009249731
     13        1           0.000182112   -0.000669554    0.001395820
     14        1          -0.000314131   -0.000920040    0.002934434
     15        1          -0.000184878   -0.000683373    0.006133388
     16        1           0.002474496   -0.001357342    0.001326986
     17        1          -0.002648019    0.001140312   -0.000863462
     18        1           0.000991577    0.002544640    0.001193408
     19        1           0.000232978    0.002884357    0.002644549
     20        1           0.000769097    0.000916740    0.004578701
     21        1          -0.001156648   -0.002719282    0.001558851
     22        1           0.002109179   -0.000316321   -0.003180413
     23        1          -0.000912232   -0.000940664   -0.001132809
     24        1          -0.002161989    0.005104923   -0.000925974
     25        1           0.003069411   -0.001763754   -0.004224871
 -------------------------------------------------------------------
 Cartesian Forces:  Max     0.019940862 RMS     0.005503460

 GradGradGradGradGradGradGradGradGradGradGradGradGradGradGradGradGradGrad
 Berny optimization.
 Internal  Forces:  Max     0.018304804 RMS     0.004085548
 Search for a local minimum.
 Step number   1 out of a maximum of  129
 All quantities printed in internal units (Hartrees-Bohrs-Radians)
 Mixed Optimization -- RFO/linear search
 Second derivative matrix not updated -- first step.
 ITU=  0
     Eigenvalues ---    0.00600   0.00710   0.00724   0.00995   0.01257
     Eigenvalues ---    0.01423   0.01489   0.01643   0.02057   0.02088
     Eigenvalues ---    0.02133   0.02247   0.02266   0.02279   0.02282
     Eigenvalues ---    0.02294   0.04991   0.06496   0.07358   0.07508
     Eigenvalues ---    0.07550   0.07660   0.10072   0.13316   0.15998
     Eigenvalues ---    0.16000   0.16000   0.16000   0.16000   0.16000
     Eigenvalues ---    0.16000   0.16000   0.16000   0.16000   0.16000
     Eigenvalues ---    0.21960   0.22000   0.22000   0.22499   0.24488
     Eigenvalues ---    0.24987   0.24991   0.24999   0.25000   0.31095
     Eigenvalues ---    0.31941   0.34061   0.34390   0.34392   0.34417
     Eigenvalues ---    0.34447   0.34459   0.34495   0.34587   0.34978
     Eigenvalues ---    0.35084   0.35221   0.35369   0.35388   0.37901
     Eigenvalues ---    0.41897   0.44811   0.45037   0.46308   0.47963
     Eigenvalues ---    0.50525   0.51142   0.53374   0.91490
 RFO step:  Lambda=-9.61156944D-03 EMin= 5.99856684D-03
 Linear search not attempted -- first point.
 Iteration  1 RMS(Cart)=  0.14331317 RMS(Int)=  0.00627620
 Iteration  2 RMS(Cart)=  0.01255162 RMS(Int)=  0.00036591
 Iteration  3 RMS(Cart)=  0.00008154 RMS(Int)=  0.00036456
 Iteration  4 RMS(Cart)=  0.00000001 RMS(Int)=  0.00036456
 Variable       Old X    -DE/DX   Delta X   Delta X   Delta X     New X
                                 (Linear)    (Quad)   (Total)
    R1        2.61457   0.01141   0.00000   0.02379   0.02379   2.63836
    R2        2.62256   0.00563   0.00000   0.01157   0.01156   2.63413
    R3        2.05539  -0.00150   0.00000  -0.00416  -0.00416   2.05123
    R4        2.62317  -0.00673   0.00000  -0.01315  -0.01314   2.61002
    R5        2.05317  -0.00151   0.00000  -0.00416  -0.00416   2.04901
    R6        2.65990  -0.01184   0.00000  -0.02687  -0.02688   2.63303
    R7        2.05711  -0.00303   0.00000  -0.00842  -0.00842   2.04869
    R8        2.55578   0.00622   0.00000   0.01121   0.01121   2.56699
    R9        2.05050  -0.00161   0.00000  -0.00443  -0.00443   2.04606
   R10        2.85832   0.00303   0.00000   0.00945   0.00945   2.86776
   R11        2.57680   0.00237   0.00000   0.00382   0.00381   2.58061
   R12        2.84252   0.00901   0.00000   0.02739   0.02739   2.86991
   R13        2.59339   0.00644   0.00000   0.01251   0.01251   2.60590
   R14        2.32254  -0.01130   0.00000  -0.01222  -0.01222   2.31031
   R15        2.06632  -0.00202   0.00000  -0.00572  -0.00572   2.06060
   R16        2.06582   0.00183   0.00000   0.00517   0.00517   2.07098
   R17        2.06676   0.00131   0.00000   0.00370   0.00370   2.07047
   R18        2.78380   0.00745   0.00000   0.02050   0.02050   2.80430
   R19        2.06503  -0.00063   0.00000  -0.00177  -0.00177   2.06326
   R20        2.06350  -0.00112   0.00000  -0.00314  -0.00314   2.06037
   R21        2.06562  -0.00302   0.00000  -0.00853  -0.00853   2.05709
   R22        2.74510  -0.00054   0.00000  -0.00140  -0.00140   2.74370
   R23        2.06673   0.00021   0.00000   0.00058   0.00058   2.06731
   R24        2.07228  -0.00311   0.00000  -0.00887  -0.00887   2.06341
   R25        1.91933  -0.00492   0.00000  -0.01070  -0.01070   1.90863
    A1        2.07550   0.00062   0.00000   0.00441   0.00442   2.07992
    A2        2.10472   0.00011   0.00000   0.00026   0.00025   2.10497
    A3        2.10296  -0.00073   0.00000  -0.00467  -0.00467   2.09829
    A4        2.08382  -0.00342   0.00000  -0.01175  -0.01174   2.07209
    A5        2.10684   0.00448   0.00000   0.02221   0.02220   2.12904
    A6        2.09252  -0.00106   0.00000  -0.01046  -0.01047   2.08205
    A7        2.10616   0.00064   0.00000   0.00143   0.00136   2.10752
    A8        2.08639   0.00509   0.00000   0.03117   0.03108   2.11748
    A9        2.09062  -0.00574   0.00000  -0.03268  -0.03275   2.05787
   A10        2.11829  -0.00008   0.00000   0.00122   0.00124   2.11952
   A11        2.11352   0.00277   0.00000   0.01552   0.01551   2.12903
   A12        2.05138  -0.00270   0.00000  -0.01674  -0.01675   2.03463
   A13        2.08306   0.00062   0.00000   0.00364   0.00363   2.08669
   A14        2.07274   0.00031   0.00000  -0.00144  -0.00144   2.07130
   A15        2.12695  -0.00094   0.00000  -0.00237  -0.00237   2.12457
   A16        1.98926   0.01005   0.00000   0.03863   0.03863   2.02788
   A17        2.14004   0.00826   0.00000   0.03176   0.03175   2.17179
   A18        2.15355  -0.01830   0.00000  -0.07059  -0.07060   2.08295
   A19        1.91055  -0.00205   0.00000  -0.01306  -0.01311   1.89745
   A20        1.90609   0.00212   0.00000   0.00907   0.00892   1.91501
   A21        1.93435   0.00506   0.00000   0.03428   0.03413   1.96848
   A22        1.91064  -0.00193   0.00000  -0.02042  -0.02046   1.89018
   A23        1.89363  -0.00007   0.00000   0.00638   0.00634   1.89997
   A24        1.90843  -0.00322   0.00000  -0.01695  -0.01719   1.89125
   A25        1.88577   0.00664   0.00000   0.04048   0.04034   1.92611
   A26        1.89526   0.00369   0.00000   0.02169   0.02147   1.91672
   A27        1.92593  -0.00519   0.00000  -0.03191  -0.03168   1.89425
   A28        1.95134  -0.00449   0.00000  -0.02379  -0.02434   1.92699
   A29        1.90668  -0.00082   0.00000  -0.00477  -0.00446   1.90221
   A30        1.89900   0.00009   0.00000  -0.00221  -0.00207   1.89694
   A31        1.96420   0.00125   0.00000   0.00321   0.00128   1.96548
   A32        1.93796   0.00155   0.00000   0.03591   0.03479   1.97275
   A33        1.92004  -0.00505   0.00000  -0.06427  -0.06534   1.85470
   A34        1.87850   0.00280   0.00000   0.05039   0.04931   1.92781
   A35        1.90300  -0.00186   0.00000  -0.03847  -0.03991   1.86309
   A36        1.85642   0.00142   0.00000   0.01503   0.01621   1.87263
   A37        2.10972   0.00193   0.00000   0.00621   0.00622   2.11594
   A38        2.05995   0.00085   0.00000   0.00390   0.00389   2.06384
   A39        2.11349  -0.00278   0.00000  -0.01012  -0.01012   2.10337
   A40        2.14172  -0.01334   0.00000  -0.05818  -0.05825   2.08348
   A41        2.07413   0.00569   0.00000   0.02317   0.02310   2.09723
   A42        2.06717   0.00764   0.00000   0.03468   0.03461   2.10178
    D1        0.00376   0.00008   0.00000   0.00281   0.00287   0.00663
    D2       -3.14112   0.00005   0.00000   0.00170   0.00169  -3.13943
    D3       -3.13523   0.00011   0.00000   0.00351   0.00365  -3.13159
    D4        0.00307   0.00008   0.00000   0.00241   0.00247   0.00554
    D5        0.00473  -0.00013   0.00000  -0.00438  -0.00442   0.00031
    D6       -3.13256   0.00059   0.00000   0.01840   0.01876  -3.11380
    D7       -3.13945  -0.00016   0.00000  -0.00508  -0.00519   3.13854
    D8        0.00644   0.00056   0.00000   0.01770   0.01800   0.02444
    D9       -0.00155  -0.00007   0.00000  -0.00249  -0.00253  -0.00408
   D10        3.13929  -0.00001   0.00000  -0.00071  -0.00073   3.13856
   D11       -3.13988  -0.00005   0.00000  -0.00145  -0.00144  -3.14132
   D12        0.00096   0.00002   0.00000   0.00032   0.00036   0.00132
   D13       -3.12590   0.00036   0.00000   0.01164   0.01155  -3.11435
   D14       -0.01547   0.00020   0.00000   0.00563   0.00557  -0.00990
   D15        0.01139  -0.00033   0.00000  -0.01104  -0.01071   0.00068
   D16        3.12182  -0.00050   0.00000  -0.01705  -0.01670   3.10512
   D17       -0.00958   0.00015   0.00000   0.00380   0.00378  -0.00580
   D18        3.13910   0.00021   0.00000   0.00567   0.00570  -3.13838
   D19        3.13274   0.00008   0.00000   0.00207   0.00206   3.13480
   D20       -0.00177   0.00014   0.00000   0.00395   0.00399   0.00222
   D21        1.64685  -0.00438   0.00000  -0.11273  -0.11244   1.53442
   D22       -2.52922   0.00119   0.00000  -0.02016  -0.01961  -2.54884
   D23       -0.47893   0.00074   0.00000  -0.01973  -0.02053  -0.49946
   D24       -1.46257  -0.00424   0.00000  -0.10655  -0.10628  -1.56886
   D25        0.64453   0.00133   0.00000  -0.01398  -0.01346   0.63107
   D26        2.69483   0.00089   0.00000  -0.01355  -0.01438   2.68045
   D27        0.01780  -0.00017   0.00000  -0.00520  -0.00513   0.01268
   D28       -3.13109  -0.00022   0.00000  -0.00707  -0.00704  -3.13813
   D29        3.12742  -0.00031   0.00000  -0.01125  -0.01113   3.11628
   D30       -0.02148  -0.00036   0.00000  -0.01313  -0.01305  -0.03453
   D31        2.72203   0.00153   0.00000   0.01985   0.01993   2.74196
   D32       -1.46957  -0.00078   0.00000  -0.00747  -0.00746  -1.47703
   D33        0.63397  -0.00023   0.00000  -0.00107  -0.00091   0.63306
   D34       -0.44677   0.00116   0.00000   0.01082   0.01074  -0.43603
   D35        1.64482  -0.00115   0.00000  -0.01649  -0.01666   1.62816
   D36       -2.53483  -0.00060   0.00000  -0.01010  -0.01010  -2.54493
   D37        3.13686   0.00123   0.00000   0.03761   0.03770  -3.10863
   D38       -0.02423   0.00075   0.00000   0.01731   0.01748  -0.00675
   D39        0.02271   0.00113   0.00000   0.04487   0.04470   0.06741
   D40       -3.13838   0.00064   0.00000   0.02457   0.02448  -3.11390
   D41        2.00158  -0.00018   0.00000   0.00036   0.00000   2.00159
   D42       -1.13291  -0.00014   0.00000   0.00218   0.00185  -1.13106
   D43       -2.16192   0.00051   0.00000   0.00840   0.00867  -2.15326
   D44        0.98677   0.00055   0.00000   0.01022   0.01051   0.99728
   D45       -0.08194  -0.00020   0.00000   0.00010   0.00015  -0.08179
   D46        3.06675  -0.00016   0.00000   0.00191   0.00199   3.06875
   D47       -1.51871   0.00514   0.00000   0.13051   0.13054  -1.38817
   D48        1.64231   0.00564   0.00000   0.15085   0.15094   1.79324
   D49        2.62357   0.00043   0.00000   0.04811   0.04749   2.67106
   D50       -0.49859   0.00093   0.00000   0.06845   0.06789  -0.43071
   D51        0.61671  -0.00177   0.00000   0.02348   0.02398   0.64069
   D52       -2.50546  -0.00127   0.00000   0.04382   0.04437  -2.46108
         Item               Value     Threshold  Converged?
 Maximum Force            0.018305     0.000450     NO 
 RMS     Force            0.004086     0.000300     NO 
 Maximum Displacement     0.612099     0.001800     NO 
 RMS     Displacement     0.150253     0.001200     NO 
 Predicted change in Energy=-5.361345D-03
 GradGradGradGradGradGradGradGradGradGradGradGradGradGradGradGradGradGrad

                          Input orientation:                          
 ---------------------------------------------------------------------
 Center     Atomic      Atomic             Coordinates (Angstroms)
 Number     Number       Type             X           Y           Z
 ---------------------------------------------------------------------
      1          6           0        1.810581   -0.538276    0.077869
      2          6           0        0.585545   -0.293623    0.701320
      3          6           0        2.807747   -1.212843    0.780459
      4          6           0        0.405038   -0.723113    2.001541
      5          6           0        2.592180   -1.641108    2.088705
      6          6           0        5.557524   -0.742896    2.829742
      7          6           0        6.457544    0.176518    3.636628
      8          6           0        1.115667   -1.810183    4.067669
      9          6           0        3.708780   -2.341587    2.840707
     10          7           0        1.387381   -1.376643    2.674692
     11          7           0        4.581381   -1.412999    3.536634
     12          8           0        5.625783   -0.887956    1.617734
     13          1           0        1.988771   -0.205971   -0.940000
     14          1           0       -0.222115    0.225036    0.196979
     15          1           0        3.780486   -1.398832    0.339440
     16          1           0       -0.522032   -0.559025    2.536257
     17          1           0        7.392683    0.315822    3.093367
     18          1           0        5.977937    1.155064    3.752648
     19          1           0        6.682573   -0.217927    4.633731
     20          1           0        1.115117   -2.900058    4.133005
     21          1           0        1.865042   -1.389455    4.738621
     22          1           0        0.136014   -1.437255    4.361237
     23          1           0        3.344978   -3.111881    3.527059
     24          1           0        4.319214   -2.841465    2.085884
     25          1           0        4.498572   -1.283641    4.534892
 ---------------------------------------------------------------------
                    Distance matrix (angstroms):
                    1          2          3          4          5
     1  C    0.000000
     2  C    1.396159   0.000000
     3  C    1.393919   2.406119   0.000000
     4  C    2.389609   1.381166   2.739323   0.000000
     5  C    2.422931   2.786959   1.393338   2.373584   0.000000
     6  C    4.653412   5.427025   3.461457   5.218660   3.185778
     7  C    5.896606   6.581599   4.838290   6.333693   4.543223
     8  C    4.244898   3.730052   3.745091   2.440410   2.474869
     9  C    3.806358   4.304153   2.516058   3.773376   1.517555
    10  N    2.761421   2.389575   2.373266   1.358393   1.365600
    11  N    4.517247   5.025805   3.283648   4.502698   2.470921
    12  O    4.129070   5.157232   2.957686   5.237428   3.160980
    13  H    1.085466   2.161171   2.155108   3.380578   3.405404
    14  H    2.174554   1.084289   3.404116   2.132780   3.870579
    15  H    2.165525   3.400014   1.084118   3.822673   2.128544
    16  H    3.388980   2.159666   3.820699   1.082731   3.327090
    17  H    6.401762   7.240886   5.357984   7.148331   5.280506
    18  H    5.808463   6.362954   4.948837   6.136050   4.695810
    19  H    6.677934   7.255573   5.554443   6.825766   5.023337
    20  H    4.744028   4.341706   4.117190   3.128329   2.818834
    21  H    4.738152   4.374673   4.072706   3.172890   2.759368
    22  H    4.686104   3.860694   4.473309   2.480027   3.352418
    23  H    4.568886   4.851994   3.382126   4.083707   2.190602
    24  H    3.953484   4.727452   2.577029   4.451438   2.103214
    25  H    5.257938   5.566704   4.118212   4.846553   3.121849
                    6          7          8          9         10
     6  C    0.000000
     7  C    1.518692   0.000000
     8  C    4.733039   5.715630   0.000000
     9  C    2.444134   3.811831   2.917543   0.000000
    10  N    4.220873   5.389266   1.483971   2.519439   0.000000
    11  N    1.378982   2.461007   3.528587   1.451903   3.308459
    12  O    1.222564   2.429170   5.214770   2.698816   4.395455
    13  H    5.218739   6.407945   5.330343   4.670443   3.846835
    14  H    6.424372   7.513414   4.573185   5.387837   3.360791
    15  H    3.128852   4.529880   4.601105   2.673998   3.343777
    16  H    6.089413   7.103966   2.567622   4.601086   2.081712
    17  H    2.134992   1.090423   6.698513   4.549374   6.253269
    18  H    2.151918   1.095918   5.703822   4.266999   5.352077
    19  H    2.189910   1.095645   5.817744   4.070419   5.763638
    20  H    5.107525   6.184920   1.091831   2.951103   2.126404
    21  H    4.206695   4.975715   1.090299   2.812117   2.118521
    22  H    5.676300   6.564378   1.088567   3.986789   2.100959
    23  H    3.315675   4.529199   2.637519   1.093976   2.751321
    24  H    2.547691   4.010672   3.905602   1.091909   3.329871
    25  H    2.078778   2.603173   3.455371   2.147856   3.626087
                   11         12         13         14         15
    11  N    0.000000
    12  O    2.246914   0.000000
    13  H    5.312137   4.498329   0.000000
    14  H    6.075362   6.120066   2.523193   0.000000
    15  H    3.296010   2.302205   2.504023   4.321812   0.000000
    16  H    5.270185   6.224750   4.302690   2.485342   4.903361
    17  H    3.329974   2.597789   6.763326   8.147542   4.855112
    18  H    2.931208   2.975869   6.307678   7.207522   4.795952
    19  H    2.654586   3.265269   7.286865   8.219227   5.315785
    20  H    3.818636   5.542674   5.810056   5.200644   4.873295
    21  H    2.970492   4.912698   5.801955   5.252554   4.798105
    22  H    4.521266   6.161663   5.749076   4.498056   5.427569
    23  H    2.101186   3.713951   5.498930   5.911734   3.644875
    24  H    2.052784   2.396348   4.640342   5.796125   2.328408
    25  H    1.010005   3.152297   6.118408   6.586234   4.258019
                   16         17         18         19         20
    16  H    0.000000
    17  H    7.982383   0.000000
    18  H    6.831347   1.772141   0.000000
    19  H    7.511464   1.778163   1.777054   0.000000
    20  H    3.272660   7.129555   6.343161   6.200090   0.000000
    21  H    3.352335   6.014120   4.935850   4.959041   1.791948
    22  H    2.129522   7.572319   6.420168   6.664717   1.774972
    23  H    4.738411   5.321762   5.018982   4.554035   2.320413
    24  H    5.371223   4.519922   4.636993   4.354302   3.802680
    25  H    5.452163   3.607235   2.957651   2.432154   3.771218
                   21         22         23         24         25
    21  H    0.000000
    22  H    1.770379   0.000000
    23  H    2.573878   3.714523   0.000000
    24  H    3.894651   4.964696   1.760467   0.000000
    25  H    2.643517   4.368715   2.385156   2.908028   0.000000
 Stoichiometry    C9H13N2O(1+)
 Framework group  C1[X(C9H13N2O)]
 Deg. of freedom    69
 Full point group                 C1      NOp   1
 Largest Abelian subgroup         C1      NOp   1
 Largest concise Abelian subgroup C1      NOp   1
                         Standard orientation:                         
 ---------------------------------------------------------------------
 Center     Atomic      Atomic             Coordinates (Angstroms)
 Number     Number       Type             X           Y           Z
 ---------------------------------------------------------------------
      1          6           0       -1.830705   -1.927897   -0.008109
      2          6           0       -2.827005   -1.147512   -0.597725
      3          6           0       -0.722226   -1.300447    0.558099
      4          6           0       -2.676193    0.225363   -0.607150
      5          6           0       -0.602900    0.087656    0.540193
      6          6           0        2.499315   -0.226670   -0.112988
      7          6           0        3.634594    0.000092   -1.095915
      8          6           0       -1.500865    2.303163   -0.100248
      9          6           0        0.632189    0.740581    1.132828
     10          7           0       -1.588657    0.822511   -0.054059
     11          7           0        1.711833    0.869244    0.170623
     12          8           0        2.231036   -1.305163    0.396466
     13          1           0       -1.913532   -3.010077    0.008145
     14          1           0       -3.709042   -1.587438   -1.049563
     15          1           0        0.083875   -1.873339    1.002290
     16          1           0       -3.414485    0.880385   -1.052321
     17          1           0        4.395896   -0.763465   -0.933367
     18          1           0        3.261201   -0.099120   -2.121474
     19          1           0        4.095951    0.988280   -0.990687
     20          1           0       -1.546884    2.718050    0.908636
     21          1           0       -0.575787    2.603456   -0.593003
     22          1           0       -2.342404    2.681813   -0.677668
     23          1           0        0.422174    1.705720    1.603128
     24          1           0        0.987491    0.068174    1.916343
     25          1           0        1.907805    1.760594   -0.262042
 ---------------------------------------------------------------------
 Rotational constants (GHZ):      1.6246331      0.6238377      0.5115094
 Standard basis: 6-31G(d) (6D, 7F)
 There are   206 symmetry adapted basis functions of A   symmetry.
 Integral buffers will be    131072 words long.
 Raffenetti 2 integral format.
 Two-electron integral symmetry is turned on.
   206 basis functions,   388 primitive gaussians,   206 cartesian basis functions
    44 alpha electrons       44 beta electrons
       nuclear repulsion energy       702.3666694776 Hartrees.
 NAtoms=   25 NActive=   25 NUniq=   25 SFac= 1.00D+00 NAtFMM=   60 NAOKFM=F Big=F
 One-electron integrals computed using PRISM.
 NBasis=   206 RedAO= T  NBF=   206
 NBsUse=   206 1.00D-06 NBFU=   206
 Initial guess read from the read-write file.
 B after Tr=     0.000000    0.000000    0.000000
         Rot=    1.000000    0.000000    0.000000    0.000000 Ang=   0.00 deg.
 Initial guess orbital symmetries:
       Occupied  (A) (A) (A) (A) (A) (A) (A) (A) (A) (A) (A) (A)
                 (A) (A) (A) (A) (A) (A) (A) (A) (A) (A) (A) (A)
                 (A) (A) (A) (A) (A) (A) (A) (A) (A) (A) (A) (A)
                 (A) (A) (A) (A) (A) (A) (A) (A)
       Virtual   (A) (A) (A) (A) (A) (A) (A) (A) (A) (A) (A) (A)
                 (A) (A) (A) (A) (A) (A) (A) (A) (A) (A) (A) (A)
                 (A) (A) (A) (A) (A) (A) (A) (A) (A) (A) (A) (A)
                 (A) (A) (A) (A) (A) (A) (A) (A) (A) (A) (A) (A)
                 (A) (A) (A) (A) (A) (A) (A) (A) (A) (A) (A) (A)
                 (A) (A) (A) (A) (A) (A) (A) (A) (A) (A) (A) (A)
                 (A) (A) (A) (A) (A) (A) (A) (A) (A) (A) (A) (A)
                 (A) (A) (A) (A) (A) (A) (A) (A) (A) (A) (A) (A)
                 (A) (A) (A) (A) (A) (A) (A) (A) (A) (A) (A) (A)
                 (A) (A) (A) (A) (A) (A) (A) (A) (A) (A) (A) (A)
                 (A) (A) (A) (A) (A) (A) (A) (A) (A) (A) (A) (A)
                 (A) (A) (A) (A) (A) (A) (A) (A) (A) (A) (A) (A)
                 (A) (A) (A) (A) (A) (A) (A) (A) (A) (A) (A) (A)
                 (A) (A) (A) (A) (A) (A)
 Harris functional with IExCor=  402 diagonalized for initial guess.
 ExpMin= 1.61D-01 ExpMax= 5.48D+03 ExpMxC= 8.25D+02 IAcc=3 IRadAn=         5 AccDes= 0.00D+00
 HarFok:  IExCor=  402 AccDes= 0.00D+00 IRadAn=         5 IDoV= 1
 ScaDFX=  1.000000  1.000000  1.000000  1.000000
 FoFCou: FMM=F IPFlag=           0 FMFlag=      100000 FMFlg1=           0
         NFxFlg=           0 DoJE=T BraDBF=F KetDBF=T FulRan=T
         Omega=  0.000000  0.000000  1.000000  0.000000  0.000000 ICntrl=     500 IOpCl=  0
         NMat0=    1 NMatS0=    1 NMatT0=    0 NMatD0=    1 NMtDS0=    0 NMtDT0=    0
         I1Cent=           4 NGrid=           0.
 Petite list used in FoFCou.
 Requested convergence on RMS density matrix=1.00D-08 within 128 cycles.
 Requested convergence on MAX density matrix=1.00D-06.
 Requested convergence on             energy=1.00D-06.
 No special actions if energy rises.
 Integral accuracy reduced to 1.0D-05 until final iterations.
 Initial convergence to 1.0D-05 achieved.  Increase integral accuracy.
 SCF Done:  E(RB3LYP) =  -535.304189171     A.U. after   13 cycles
             Convg  =    0.5943D-08             -V/T =  2.0097
 Calling FoFJK, ICntrl=      2127 FMM=F ISym2X=0 I1Cent= 0 IOpClX= 0 NMat=1 NMatS=1 NMatT=0.
 ***** Axes restored to original set *****
 -------------------------------------------------------------------
 Center     Atomic                   Forces (Hartrees/Bohr)
 Number     Number              X              Y              Z
 -------------------------------------------------------------------
      1        6           0.000453385   -0.000400111    0.001045950
      2        6           0.000367951    0.000125184    0.000416339
      3        6          -0.002000142    0.000310575   -0.003964219
      4        6          -0.001217018    0.000982012   -0.001480878
      5        6          -0.000294514    0.001302792   -0.002281960
      6        6          -0.000342040    0.002137051    0.001041301
      7        6          -0.000221237   -0.002938213   -0.000456940
      8        6          -0.001333290    0.000790878    0.000101192
      9        6           0.003351949   -0.002963195    0.000364571
     10        7           0.000171384   -0.001531406    0.001857403
     11        7          -0.003069782    0.001258333    0.005576108
     12        8           0.004995845    0.001753214   -0.002549647
     13        1          -0.000034657   -0.000268713   -0.000053593
     14        1           0.000058343   -0.000088794    0.000192295
     15        1          -0.000743532    0.000177524    0.001022333
     16        1           0.000254528   -0.000485479    0.000794507
     17        1          -0.000070937    0.000288328   -0.000974996
     18        1          -0.000107700    0.000264522   -0.000212701
     19        1          -0.001174348   -0.000020778   -0.000516337
     20        1           0.000487884    0.000111068   -0.000571705
     21        1           0.000873504   -0.000102930   -0.000272398
     22        1          -0.000327056   -0.000072476    0.000148486
     23        1          -0.000507688    0.002846670    0.000373054
     24        1          -0.000401005   -0.001763184   -0.000427282
     25        1           0.000830174   -0.001712874    0.000829118
 -------------------------------------------------------------------
 Cartesian Forces:  Max     0.005576108 RMS     0.001532861

 GradGradGradGradGradGradGradGradGradGradGradGradGradGradGradGradGradGrad
 Berny optimization.
 Using GEDIIS/GDIIS optimizer.
 Internal  Forces:  Max     0.007468349 RMS     0.001666621
 Search for a local minimum.
 Step number   2 out of a maximum of  129
 All quantities printed in internal units (Hartrees-Bohrs-Radians)
 Mixed Optimization -- RFO/linear search
 Update second derivatives using D2CorX and points    1    2
 DE= -4.08D-03 DEPred=-5.36D-03 R= 7.62D-01
 SS=  1.41D+00  RLast= 3.42D-01 DXNew= 5.0454D-01 1.0268D+00
 Trust test= 7.62D-01 RLast= 3.42D-01 DXMaxT set to 5.05D-01
 ITU=  1  0
 Use linear search instead of GDIIS.
     Eigenvalues ---    0.00620   0.00710   0.00725   0.01049   0.01225
     Eigenvalues ---    0.01408   0.01491   0.01647   0.02080   0.02090
     Eigenvalues ---    0.02139   0.02247   0.02266   0.02279   0.02283
     Eigenvalues ---    0.02293   0.05627   0.06814   0.07081   0.07382
     Eigenvalues ---    0.07504   0.07635   0.09980   0.13333   0.15237
     Eigenvalues ---    0.15991   0.15997   0.16000   0.16000   0.16000
     Eigenvalues ---    0.16000   0.16000   0.16000   0.16000   0.16147
     Eigenvalues ---    0.21571   0.22001   0.22483   0.22609   0.24138
     Eigenvalues ---    0.24558   0.24995   0.24999   0.28763   0.30997
     Eigenvalues ---    0.33047   0.34114   0.34350   0.34396   0.34428
     Eigenvalues ---    0.34448   0.34493   0.34562   0.34686   0.34888
     Eigenvalues ---    0.35085   0.35216   0.35387   0.35529   0.38089
     Eigenvalues ---    0.42027   0.44596   0.45019   0.46162   0.47753
     Eigenvalues ---    0.50199   0.51131   0.53302   0.91673
 RFO step:  Lambda=-1.15376907D-03 EMin= 6.19997752D-03
 Quartic linear search produced a step of -0.16955.
 Iteration  1 RMS(Cart)=  0.06433256 RMS(Int)=  0.00090201
 Iteration  2 RMS(Cart)=  0.00176032 RMS(Int)=  0.00015787
 Iteration  3 RMS(Cart)=  0.00000088 RMS(Int)=  0.00015787
 Variable       Old X    -DE/DX   Delta X   Delta X   Delta X     New X
                                 (Linear)    (Quad)   (Total)
    R1        2.63836   0.00027  -0.00403   0.00699   0.00296   2.64132
    R2        2.63413  -0.00077  -0.00196   0.00185  -0.00011   2.63402
    R3        2.05123  -0.00004   0.00071  -0.00127  -0.00056   2.05067
    R4        2.61002  -0.00060   0.00223  -0.00477  -0.00255   2.60748
    R5        2.04901  -0.00018   0.00071  -0.00159  -0.00088   2.04812
    R6        2.63303   0.00150   0.00456  -0.00467  -0.00011   2.63292
    R7        2.04869  -0.00111   0.00143  -0.00502  -0.00359   2.04510
    R8        2.56699   0.00033  -0.00190   0.00366   0.00175   2.56874
    R9        2.04606   0.00010   0.00075  -0.00102  -0.00027   2.04580
   R10        2.86776   0.00432  -0.00160   0.01416   0.01256   2.88032
   R11        2.58061   0.00077  -0.00065   0.00237   0.00173   2.58234
   R12        2.86991  -0.00354  -0.00464  -0.00134  -0.00598   2.86393
   R13        2.60590   0.00478  -0.00212   0.01131   0.00919   2.61509
   R14        2.31031   0.00260   0.00207  -0.00100   0.00107   2.31139
   R15        2.06060   0.00046   0.00097  -0.00051   0.00046   2.06106
   R16        2.07098   0.00026  -0.00088   0.00209   0.00121   2.07220
   R17        2.07047  -0.00070  -0.00063  -0.00064  -0.00127   2.06920
   R18        2.80430  -0.00071  -0.00348   0.00414   0.00066   2.80496
   R19        2.06326  -0.00014   0.00030  -0.00085  -0.00055   2.06271
   R20        2.06037   0.00039   0.00053   0.00005   0.00058   2.06095
   R21        2.05709   0.00031   0.00145  -0.00168  -0.00023   2.05686
   R22        2.74370   0.00247   0.00024   0.00500   0.00523   2.74893
   R23        2.06731  -0.00160  -0.00010  -0.00368  -0.00378   2.06354
   R24        2.06341   0.00088   0.00150  -0.00039   0.00112   2.06453
   R25        1.90863   0.00053   0.00181  -0.00202  -0.00021   1.90843
    A1        2.07992   0.00057  -0.00075   0.00308   0.00233   2.08225
    A2        2.10497  -0.00021  -0.00004  -0.00043  -0.00048   2.10449
    A3        2.09829  -0.00035   0.00079  -0.00264  -0.00185   2.09644
    A4        2.07209   0.00017   0.00199  -0.00315  -0.00118   2.07091
    A5        2.12904   0.00005  -0.00376   0.00721   0.00345   2.13248
    A6        2.08205  -0.00022   0.00177  -0.00404  -0.00226   2.07979
    A7        2.10752  -0.00022  -0.00023  -0.00044  -0.00068   2.10684
    A8        2.11748   0.00068  -0.00527   0.01259   0.00730   2.12478
    A9        2.05787  -0.00047   0.00555  -0.01256  -0.00704   2.05084
   A10        2.11952  -0.00037  -0.00021  -0.00107  -0.00130   2.11823
   A11        2.12903   0.00117  -0.00263   0.01044   0.00781   2.13685
   A12        2.03463  -0.00079   0.00284  -0.00937  -0.00652   2.02811
   A13        2.08669   0.00563  -0.00062   0.01968   0.01900   2.10569
   A14        2.07130  -0.00075   0.00024  -0.00233  -0.00214   2.06916
   A15        2.12457  -0.00486   0.00040  -0.01668  -0.01635   2.10822
   A16        2.02788  -0.00325  -0.00655   0.00103  -0.00596   2.02192
   A17        2.17179  -0.00419  -0.00538  -0.00413  -0.00995   2.16184
   A18        2.08295   0.00747   0.01197   0.00479   0.01631   2.09927
   A19        1.89745  -0.00051   0.00222  -0.00606  -0.00384   1.89361
   A20        1.91501  -0.00007  -0.00151   0.00090  -0.00060   1.91441
   A21        1.96848  -0.00084  -0.00579   0.00684   0.00108   1.96956
   A22        1.89018   0.00001   0.00347  -0.00815  -0.00469   1.88549
   A23        1.89997   0.00118  -0.00107   0.01063   0.00956   1.90953
   A24        1.89125   0.00028   0.00291  -0.00465  -0.00170   1.88955
   A25        1.92611  -0.00103  -0.00684   0.00589  -0.00093   1.92518
   A26        1.91672  -0.00075  -0.00364   0.00212  -0.00148   1.91524
   A27        1.89425   0.00069   0.00537  -0.00457   0.00076   1.89501
   A28        1.92699   0.00027   0.00413  -0.00874  -0.00453   1.92247
   A29        1.90221   0.00035   0.00076   0.00137   0.00207   1.90429
   A30        1.89694   0.00050   0.00035   0.00397   0.00429   1.90123
   A31        1.96548   0.00408  -0.00022   0.01520   0.01512   1.98060
   A32        1.97275  -0.00246  -0.00590  -0.01335  -0.01908   1.95367
   A33        1.85470  -0.00022   0.01108  -0.00741   0.00354   1.85824
   A34        1.92781  -0.00317  -0.00836  -0.01231  -0.02047   1.90734
   A35        1.86309   0.00132   0.00677   0.01194   0.01877   1.88186
   A36        1.87263   0.00068  -0.00275   0.00756   0.00474   1.87737
   A37        2.11594   0.00060  -0.00105   0.00409   0.00303   2.11897
   A38        2.06384  -0.00011  -0.00066   0.00064  -0.00002   2.06381
   A39        2.10337  -0.00049   0.00172  -0.00469  -0.00298   2.10039
   A40        2.08348   0.00478   0.00988   0.00033   0.00948   2.09296
   A41        2.09723  -0.00194  -0.00392  -0.00083  -0.00548   2.09176
   A42        2.10178  -0.00288  -0.00587  -0.00209  -0.00867   2.09311
    D1        0.00663  -0.00016  -0.00049  -0.00445  -0.00492   0.00172
    D2       -3.13943   0.00001  -0.00029   0.00154   0.00128  -3.13815
    D3       -3.13159  -0.00021  -0.00062  -0.00681  -0.00746  -3.13905
    D4        0.00554  -0.00004  -0.00042  -0.00083  -0.00126   0.00427
    D5        0.00031  -0.00004   0.00075  -0.00567  -0.00496  -0.00465
    D6       -3.11380   0.00015  -0.00318   0.01279   0.00952  -3.10428
    D7        3.13854   0.00001   0.00088  -0.00331  -0.00243   3.13612
    D8        0.02444   0.00020  -0.00305   0.01515   0.01205   0.03649
    D9       -0.00408   0.00013   0.00043   0.00427   0.00472   0.00065
   D10        3.13856   0.00016   0.00012   0.00599   0.00610  -3.13852
   D11       -3.14132  -0.00003   0.00024  -0.00157  -0.00130   3.14057
   D12        0.00132   0.00000  -0.00006   0.00015   0.00008   0.00139
   D13       -3.11435  -0.00008  -0.00196  -0.00367  -0.00584  -3.12019
   D14       -0.00990   0.00027  -0.00094   0.01600   0.01506   0.00515
   D15        0.00068  -0.00024   0.00182  -0.02114  -0.01950  -0.01883
   D16        3.10512   0.00011   0.00283  -0.00147   0.00139   3.10651
   D17       -0.00580   0.00010  -0.00064   0.00638   0.00570  -0.00011
   D18       -3.13838   0.00000  -0.00097   0.00211   0.00106  -3.13732
   D19        3.13480   0.00007  -0.00035   0.00475   0.00441   3.13921
   D20        0.00222  -0.00002  -0.00068   0.00049  -0.00022   0.00200
   D21        1.53442   0.00289   0.01906   0.02647   0.04553   1.57995
   D22       -2.54884  -0.00007   0.00333   0.01126   0.01452  -2.53432
   D23       -0.49946  -0.00074   0.00348   0.00847   0.01205  -0.48740
   D24       -1.56886   0.00243   0.01802   0.00583   0.02383  -1.54503
   D25        0.63107  -0.00053   0.00228  -0.00938  -0.00718   0.62389
   D26        2.68045  -0.00120   0.00244  -0.01217  -0.00965   2.67081
   D27        0.01268  -0.00030   0.00087  -0.01634  -0.01545  -0.00277
   D28       -3.13813  -0.00020   0.00119  -0.01195  -0.01071   3.13435
   D29        3.11628   0.00029   0.00189   0.00460   0.00626   3.12254
   D30       -0.03453   0.00039   0.00221   0.00899   0.01101  -0.02352
   D31        2.74196  -0.00030  -0.00338  -0.02671  -0.02993   2.71203
   D32       -1.47703  -0.00063   0.00127  -0.03962  -0.03818  -1.51521
   D33        0.63306  -0.00089   0.00015  -0.04034  -0.04004   0.59302
   D34       -0.43603   0.00076  -0.00182   0.02789   0.02591  -0.41012
   D35        1.62816   0.00043   0.00282   0.01498   0.01766   1.64582
   D36       -2.54493   0.00018   0.00171   0.01425   0.01580  -2.52913
   D37       -3.10863   0.00056  -0.00639   0.06376   0.05764  -3.05098
   D38       -0.00675  -0.00060  -0.00296  -0.01098  -0.01373  -0.02049
   D39        0.06741  -0.00020  -0.00758   0.01230   0.00451   0.07192
   D40       -3.11390  -0.00137  -0.00415  -0.06244  -0.06687   3.10242
   D41        2.00159   0.00037   0.00000   0.00490   0.00497   2.00655
   D42       -1.13106   0.00027  -0.00031   0.00062   0.00035  -1.13071
   D43       -2.15326  -0.00046  -0.00147  -0.00077  -0.00227  -2.15553
   D44        0.99728  -0.00055  -0.00178  -0.00505  -0.00689   0.99040
   D45       -0.08179   0.00013  -0.00003   0.00255   0.00252  -0.07927
   D46        3.06875   0.00003  -0.00034  -0.00173  -0.00209   3.06665
   D47       -1.38817  -0.00255  -0.02213  -0.00051  -0.02271  -1.41089
   D48        1.79324  -0.00141  -0.02559   0.07440   0.04865   1.84189
   D49        2.67106   0.00009  -0.00805   0.01537   0.00741   2.67848
   D50       -0.43071   0.00123  -0.01151   0.09028   0.07877  -0.35193
   D51        0.64069   0.00019  -0.00407   0.00605   0.00210   0.64279
   D52       -2.46108   0.00133  -0.00752   0.08096   0.07346  -2.38762
         Item               Value     Threshold  Converged?
 Maximum Force            0.007468     0.000450     NO 
 RMS     Force            0.001667     0.000300     NO 
 Maximum Displacement     0.182870     0.001800     NO 
 RMS     Displacement     0.063414     0.001200     NO 
 Predicted change in Energy=-7.657297D-04
 GradGradGradGradGradGradGradGradGradGradGradGradGradGradGradGradGradGrad

                          Input orientation:                          
 ---------------------------------------------------------------------
 Center     Atomic      Atomic             Coordinates (Angstroms)
 Number     Number       Type             X           Y           Z
 ---------------------------------------------------------------------
      1          6           0        1.741664   -0.573776    0.036403
      2          6           0        0.527182   -0.327511    0.682948
      3          6           0        2.763274   -1.222771    0.727757
      4          6           0        0.380172   -0.735861    1.992731
      5          6           0        2.585996   -1.620197    2.051333
      6          6           0        5.577409   -0.703569    2.854262
      7          6           0        6.496928    0.144960    3.709422
      8          6           0        1.151650   -1.779677    4.060606
      9          6           0        3.713703   -2.304876    2.814664
     10          7           0        1.386738   -1.365328    2.654810
     11          7           0        4.575595   -1.377240    3.530699
     12          8           0        5.694281   -0.826776    1.642976
     13          1           0        1.892000   -0.263916   -0.992662
     14          1           0       -0.299118    0.170470    0.189075
     15          1           0        3.730540   -1.403015    0.277086
     16          1           0       -0.534204   -0.578939    2.550666
     17          1           0        7.449372    0.254802    3.189487
     18          1           0        6.063650    1.143953    3.838759
     19          1           0        6.671348   -0.284483    4.701454
     20          1           0        1.172853   -2.867871    4.143351
     21          1           0        1.911902   -1.338918    4.706492
     22          1           0        0.172727   -1.417863    4.369653
     23          1           0        3.337143   -3.057541    3.510444
     24          1           0        4.323654   -2.820665    2.069360
     25          1           0        4.505932   -1.297688    4.535043
 ---------------------------------------------------------------------
                    Distance matrix (angstroms):
                    1          2          3          4          5
     1  C    0.000000
     2  C    1.397724   0.000000
     3  C    1.393862   2.409067   0.000000
     4  C    2.388964   1.379817   2.741608   0.000000
     5  C    2.422362   2.789665   1.393279   2.377214   0.000000
     6  C    4.761314   5.510065   3.565242   5.268258   3.230085
     7  C    6.051462   6.709743   4.970029   6.413858   4.600046
     8  C    4.242231   3.729252   3.743709   2.441482   2.473856
     9  C    3.821568   4.313711   2.535635   3.774892   1.524199
    10  N    2.758366   2.388335   2.372490   1.359321   1.366515
    11  N    4.570210   5.059769   3.341384   4.514231   2.491195
    12  O    4.274140   5.279189   3.096005   5.326383   3.233838
    13  H    1.085168   2.162046   2.153686   3.379487   3.403974
    14  H    2.177614   1.083820   3.407278   2.129799   3.872773
    15  H    2.168224   3.403371   1.082218   3.822761   2.122522
    16  H    3.391330   2.162898   3.822417   1.082589   3.327041
    17  H    6.573159   7.385021   5.495713   7.237902   5.335114
    18  H    6.007335   6.540399   5.115877   6.264458   4.788475
    19  H    6.793245   7.341731   5.651875   6.864387   5.049492
    20  H    4.738506   4.341049   4.111213   3.130332   2.816062
    21  H    4.735415   4.373705   4.070461   3.174015   2.753795
    22  H    4.685200   3.860867   4.473522   2.481515   3.352524
    23  H    4.558903   4.831529   3.382166   4.054297   2.181555
    24  H    3.980967   4.748806   2.605370   4.461315   2.112085
    25  H    5.329445   5.622306   4.187827   4.878616   3.155785
                    6          7          8          9         10
     6  C    0.000000
     7  C    1.515525   0.000000
     8  C    4.711753   5.692061   0.000000
     9  C    2.457469   3.814267   2.896950   0.000000
    10  N    4.247284   5.432055   1.484322   2.514571   0.000000
    11  N    1.383846   2.457754   3.488002   1.454673   3.306982
    12  O    1.223132   2.420478   5.233398   2.735019   4.457441
    13  H    5.345499   6.594099   5.327398   4.688268   3.843495
    14  H    6.511584   7.653740   4.571274   5.396646   3.358666
    15  H    3.246842   4.672265   4.594298   2.693128   3.338922
    16  H    6.120417   7.162650   2.561990   4.592740   2.078285
    17  H    2.129577   1.090664   6.675273   4.543971   6.298113
    18  H    2.149187   1.096561   5.720540   4.297144   5.437989
    19  H    2.187339   1.094975   5.754421   4.048411   5.769235
    20  H    5.074058   6.132799   1.091541   2.922035   2.125826
    21  H    4.155762   4.921230   1.090606   2.785422   2.117992
    22  H    5.658375   6.547812   1.088444   3.967782   2.101729
    23  H    3.315200   4.503315   2.590751   1.091976   2.720252
    24  H    2.582647   4.025898   3.887200   1.092500   3.329600
    25  H    2.079919   2.593636   3.421785   2.145171   3.642694
                   11         12         13         14         15
    11  N    0.000000
    12  O    2.262293   0.000000
    13  H    5.376055   4.660552   0.000000
    14  H    6.109392   6.247332   2.527092   0.000000
    15  H    3.361663   2.460485   2.507995   4.326863   0.000000
    16  H    5.263819   6.299155   4.305912   2.488773   4.902684
    17  H    3.322436   2.577179   6.974513   8.309553   5.006011
    18  H    2.943743   2.973494   6.536619   7.399505   4.961447
    19  H    2.637606   3.256229   7.434080   8.316005   5.429042
    20  H    3.765100   5.555291   5.803136   5.199472   4.861643
    21  H    2.911909   4.894263   5.799688   5.251087   4.788652
    22  H    4.482270   6.186414   5.748210   4.496962   5.422855
    23  H    2.087483   3.744309   5.492790   5.888458   3.653330
    24  H    2.069411   2.456831   4.671819   5.818280   2.360882
    25  H    1.009895   3.161959   6.201359   6.643149   4.329264
                   16         17         18         19         20
    16  H    0.000000
    17  H    8.052372   0.000000
    18  H    6.939683   1.769850   0.000000
    19  H    7.525461   1.783870   1.775941   0.000000
    20  H    3.269541   7.075001   6.333040   6.100723   0.000000
    21  H    3.347923   5.958592   4.914734   4.874852   1.789139
    22  H    2.124207   7.559112   6.445752   6.605053   1.775947
    23  H    4.695952   5.290091   5.019380   4.497252   2.262896
    24  H    5.371757   4.525848   4.677238   4.344169   3.772428
    25  H    5.464185   3.589510   2.978742   2.396519   3.705174
                   21         22         23         24         25
    21  H    0.000000
    22  H    1.773252   0.000000
    23  H    2.532885   3.666103   0.000000
    24  H    3.868667   4.948676   1.762395   0.000000
    25  H    2.600017   4.338025   2.347968   2.903838   0.000000
 Stoichiometry    C9H13N2O(1+)
 Framework group  C1[X(C9H13N2O)]
 Deg. of freedom    69
 Full point group                 C1      NOp   1
 Largest Abelian subgroup         C1      NOp   1
 Largest concise Abelian subgroup C1      NOp   1
                         Standard orientation:                         
 ---------------------------------------------------------------------
 Center     Atomic      Atomic             Coordinates (Angstroms)
 Number     Number       Type             X           Y           Z
 ---------------------------------------------------------------------
      1          6           0       -1.940953   -1.898355   -0.029975
      2          6           0       -2.902448   -1.068132   -0.612975
      3          6           0       -0.804914   -1.329009    0.542837
      4          6           0       -2.692435    0.295577   -0.603636
      5          6           0       -0.619242    0.051813    0.533727
      6          6           0        2.526088   -0.253768   -0.134830
      7          6           0        3.701031    0.039664   -1.045996
      8          6           0       -1.425077    2.312227   -0.067204
      9          6           0        0.636726    0.670869    1.135804
     10          7           0       -1.577996    0.835993   -0.043522
     11          7           0        1.721460    0.827404    0.179288
     12          8           0        2.283646   -1.358711    0.330332
     13          1           0       -2.073301   -2.975393   -0.021948
     14          1           0       -3.804212   -1.460522   -1.068515
     15          1           0       -0.019785   -1.936027    0.974459
     16          1           0       -3.397670    0.994592   -1.034937
     17          1           0        4.469515   -0.714806   -0.873502
     18          1           0        3.383526   -0.032477   -2.093103
     19          1           0        4.126169    1.035677   -0.884179
     20          1           0       -1.446237    2.711568    0.948444
     21          1           0       -0.486762    2.577479   -0.555700
     22          1           0       -2.251038    2.737324   -0.634471
     23          1           0        0.430814    1.633583    1.608237
     24          1           0        0.975725   -0.013823    1.916723
     25          1           0        1.947181    1.743428   -0.181043
 ---------------------------------------------------------------------
 Rotational constants (GHZ):      1.6456618      0.6078136      0.5001202
 Standard basis: 6-31G(d) (6D, 7F)
 There are   206 symmetry adapted basis functions of A   symmetry.
 Integral buffers will be    131072 words long.
 Raffenetti 2 integral format.
 Two-electron integral symmetry is turned on.
   206 basis functions,   388 primitive gaussians,   206 cartesian basis functions
    44 alpha electrons       44 beta electrons
       nuclear repulsion energy       699.4831031168 Hartrees.
 NAtoms=   25 NActive=   25 NUniq=   25 SFac= 1.00D+00 NAtFMM=   60 NAOKFM=F Big=F
 One-electron integrals computed using PRISM.
 NBasis=   206 RedAO= T  NBF=   206
 NBsUse=   206 1.00D-06 NBFU=   206
 Initial guess read from the read-write file.
 B after Tr=     0.000000    0.000000    0.000000
         Rot=    1.000000    0.000000    0.000000    0.000000 Ang=   0.00 deg.
 Initial guess orbital symmetries:
       Occupied  (A) (A) (A) (A) (A) (A) (A) (A) (A) (A) (A) (A)
                 (A) (A) (A) (A) (A) (A) (A) (A) (A) (A) (A) (A)
                 (A) (A) (A) (A) (A) (A) (A) (A) (A) (A) (A) (A)
                 (A) (A) (A) (A) (A) (A) (A) (A)
       Virtual   (A) (A) (A) (A) (A) (A) (A) (A) (A) (A) (A) (A)
                 (A) (A) (A) (A) (A) (A) (A) (A) (A) (A) (A) (A)
                 (A) (A) (A) (A) (A) (A) (A) (A) (A) (A) (A) (A)
                 (A) (A) (A) (A) (A) (A) (A) (A) (A) (A) (A) (A)
                 (A) (A) (A) (A) (A) (A) (A) (A) (A) (A) (A) (A)
                 (A) (A) (A) (A) (A) (A) (A) (A) (A) (A) (A) (A)
                 (A) (A) (A) (A) (A) (A) (A) (A) (A) (A) (A) (A)
                 (A) (A) (A) (A) (A) (A) (A) (A) (A) (A) (A) (A)
                 (A) (A) (A) (A) (A) (A) (A) (A) (A) (A) (A) (A)
                 (A) (A) (A) (A) (A) (A) (A) (A) (A) (A) (A) (A)
                 (A) (A) (A) (A) (A) (A) (A) (A) (A) (A) (A) (A)
                 (A) (A) (A) (A) (A) (A) (A) (A) (A) (A) (A) (A)
                 (A) (A) (A) (A) (A) (A) (A) (A) (A) (A) (A) (A)
                 (A) (A) (A) (A) (A) (A)
 Harris functional with IExCor=  402 diagonalized for initial guess.
 ExpMin= 1.61D-01 ExpMax= 5.48D+03 ExpMxC= 8.25D+02 IAcc=3 IRadAn=         5 AccDes= 0.00D+00
 HarFok:  IExCor=  402 AccDes= 0.00D+00 IRadAn=         5 IDoV= 1
 ScaDFX=  1.000000  1.000000  1.000000  1.000000
 FoFCou: FMM=F IPFlag=           0 FMFlag=      100000 FMFlg1=           0
         NFxFlg=           0 DoJE=T BraDBF=F KetDBF=T FulRan=T
         Omega=  0.000000  0.000000  1.000000  0.000000  0.000000 ICntrl=     500 IOpCl=  0
         NMat0=    1 NMatS0=    1 NMatT0=    0 NMatD0=    1 NMtDS0=    0 NMtDT0=    0
[...]
 0.00000053,-0.00000031,0.00000004,-0.00000063,0.00000328,0.00000224,0.
 00000945,-0.00000507,-0.00000418,-0.00000213,-0.09940636,0.08660770,0.
 00003737,-0.00002079,0.00000992,-0.00002076,0.00000326,0.00004239,-0.0
 0001147,0.00001880,-0.00004644,-0.00003778,0.00001735,-0.00003578,0.00
 017303,0.00000341,0.00007931,-0.02059212,0.01163790,0.00381035,0.03875
 038,-0.01722952,-0.05381207,-0.00000466,0.00000104,-0.00002652,0.00010
 557,-0.00047199,0.00007672,0.00005236,0.00000795,-0.00000043,0.0001966
 2,-0.00081722,-0.00019581,0.00197953,-0.00262315,-0.00233747,-0.000002
 75,0.00000275,0.00000190,-0.00000089,-0.00000052,0.00000274,0.00000711
 ,0.00001488,0.00003916,-0.00000376,-0.00000286,-0.00000379,-0.04342224
 ,0.02018654,0.05508635,0.00012627,-0.00004144,-0.00001253,-0.00008101,
 0.00001624,0.00009524,-0.00013013,0.00008668,-0.00013523,-0.00006701,0
 .00005237,-0.00010017,0.00015247,-0.00036315,0.00013616,-0.00313434,-0
 .02684626,0.00518026,-0.04324117,-0.00584227,0.00111597,-0.00003083,-0
 .00000921,-0.00005423,-0.00132804,-0.00048539,0.00032529,-0.00001144,0
 .00003183,0.00004819,-0.00235008,-0.00113160,-0.00354584,0.00066087,0.
 00273802,0.00231067,-0.00000642,-0.00000710,-0.00000681,-0.00000390,-0
 .00000534,-0.00000113,-0.00000849,-0.00002141,-0.00001312,-0.00001069,
 -0.00000258,-0.00000312,0.00222665,0.03066931,-0.00679664,0.04845224,0
 .00007078,-0.00002177,-0.00000008,-0.00004126,0.00000679,0.00004889,-0
 .00010394,0.00004117,-0.00005806,-0.00002526,0.00002974,-0.00005239,0.
 00001529,-0.00018222,0.00007172,-0.00064827,-0.01523561,0.00460325,-0.
 00728666,-0.31438822,0.05655412,-0.00001983,-0.00000168,-0.00001433,-0
 .00035913,-0.00002159,0.00040505,-0.00000265,0.00001149,0.00000342,-0.
 00117060,-0.00016612,-0.00244174,0.00064496,0.00308553,0.00081437,-0.0
 0000700,-0.00000344,-0.00000374,-0.00000016,-0.00000187,0.00000017,-0.
 00000857,-0.00002093,-0.00001032,-0.00000301,0.00000153,-0.00000153,-0
 .00050496,-0.01078403,0.00249301,0.00890040,0.33767652,0.00008285,-0.0
 0003791,0.00001351,-0.00004486,0.00001031,0.00005160,-0.00007910,0.000
 04709,-0.00009000,-0.00001500,0.00002626,-0.00004191,0.00010084,-0.000
 14624,0.00017845,0.00199818,-0.02278642,0.00531506,0.00148390,0.059548
 04,-0.06348812,-0.00002452,0.00000631,-0.00002426,-0.00060589,-0.00028
 114,0.00044540,-0.00001513,0.00001812,0.00003023,-0.00293683,-0.000318
 36,-0.00184394,-0.00026187,0.00197943,0.00069375,-0.00000771,-0.000005
 31,-0.00000316,-0.00000105,-0.00000246,0.00000243,-0.00000390,-0.00001
 508,0.00000673,0.00000011,0.00000346,-0.00000072,-0.00017191,-0.006155
 22,0.00081499,0.00075567,-0.06232179,0.06246255,0.00002925,-0.00004767
 ,-0.00001867,-0.00002184,0.00000903,0.00007259,0.00003728,-0.00000714,
 -0.00006087,-0.00009197,0.00006114,-0.00006672,0.00009433,0.00010643,-
 0.00003954,0.00777355,0.00682517,-0.02186250,-0.06296391,-0.01129935,0
 .06273727,-0.00004986,-0.00000933,-0.00007101,0.00016717,0.00044422,0.
 00004845,0.00005787,-0.00005604,0.00006626,-0.00046536,0.00011848,0.00
 135321,-0.00415491,-0.00278082,-0.00498069,0.00000140,-0.00000518,0.00
 000402,-0.00000212,0.00000212,0.00000372,-0.00000760,0.00003313,0.0000
 4173,-0.00000320,-0.00000061,-0.00000242,-0.00486563,-0.00554422,0.029
 59995,-0.00128090,0.00027945,-0.00006493,0.06550226,-0.00000367,-0.000
 03457,-0.00000424,0.00000713,0.00000376,0.00002094,0.00004033,-0.00002
 143,-0.00001329,-0.00002401,0.00001790,-0.00001295,0.00004925,0.000198
 16,0.00001152,0.00902652,0.00158748,-0.01362633,-0.01101224,-0.0572667
 4,0.03495419,0.00001307,0.00000815,-0.00001210,0.00044296,0.00028668,0
 .00004182,0.00002128,-0.00005537,0.00003278,-0.00059210,-0.00052705,0.
 00076136,-0.00370292,0.00080997,-0.00254499,0.00000361,-0.00000060,0.0
 0000473,0.00000021,0.00000273,0.00000315,-0.00000758,0.00002131,0.0000
 2223,0.00000601,0.00000141,0.00000162,0.00207562,0.00119820,-0.0126655
 3,-0.00798668,-0.00019868,0.03106366,0.01256412,0.05471826,0.00012765,
 -0.00012291,-0.00000132,-0.00006106,0.00001585,0.00016288,-0.00001226,
 0.00000153,-0.00014149,-0.00014230,0.00010922,-0.00014614,0.00016912,0
 .00012280,0.00005382,0.00918188,0.00766426,-0.01695553,0.06029701,0.03
 288956,-0.30007168,-0.00004414,-0.00000271,-0.00011701,-0.00032946,-0.
 00005426,0.00013153,0.00011446,-0.00009147,0.00010215,-0.00020890,0.00
 076982,0.00220893,-0.00444697,-0.00327995,-0.00227092,0.00000906,-0.00
 000672,0.00000869,0.00000029,0.00000414,0.00000720,0.00002086,0.000064
 10,0.00005470,0.00000066,-0.00000147,-0.00000322,0.00083712,0.00057406
 ,-0.00329624,0.00103197,0.00019770,-0.00407775,-0.06640699,-0.03744245
 ,0.32404492,0.00034591,-0.00021710,0.00001881,-0.00053698,-0.00040935,
 0.00027874,-0.00001011,0.00029886,-0.00031393,-0.00069147,0.00056015,-
 0.00133865,0.00005486,-0.00024967,0.00108957,-0.00010132,-0.00050138,0
 .00037080,0.00001181,0.00010348,-0.00003288,-0.05223043,-0.02011727,0.
 00302571,-0.00031473,-0.00113840,0.00090180,-0.00036455,-0.00115816,0.
 00021566,0.00031602,0.00075879,-0.00036703,-0.00006954,0.00018225,-0.0
 0025465,0.00004453,0.00007396,-0.00000923,0.00001562,0.00005325,-0.000
 01417,0.00000841,0.00001529,0.00003213,0.00035034,0.00037072,0.0000416
 1,-0.00000731,-0.00000126,0.00000598,0.00002625,0.00001599,0.00001098,
 0.00000799,-0.00001529,0.00000325,0.04924366,0.00015369,-0.00002989,-0
 .00024442,-0.00002949,-0.00000870,0.00048996,-0.00027672,-0.00007521,0
 .00017725,-0.00116831,0.00015287,-0.00036596,0.00191555,-0.00038292,-0
 .00027302,-0.00003556,-0.00010220,-0.00013845,0.00000851,0.00001396,0.
 00001911,-0.01986548,-0.32124742,0.03103168,0.00014622,-0.00000087,-0.
 00097457,0.00056729,-0.00046574,0.00562152,-0.00023784,-0.00005590,0.0
 0019953,0.00006676,0.00016496,0.00001803,-0.00002705,-0.00002057,0.000
 00458,-0.00000294,0.00002433,0.00004113,0.00001392,0.00000837,0.000052
 76,-0.00020749,-0.00015193,0.00002443,-0.00000459,0.00000046,0.0000037
 0,0.00000669,0.00000374,-0.00000427,0.00000864,-0.00000823,0.00000685,
 0.02022436,0.34204070,-0.00033313,0.00037169,0.00016125,-0.00078104,-0
 .00076803,-0.00150955,-0.00065151,-0.00089942,-0.00047271,0.00368866,0
 .00015026,-0.00100637,-0.00179351,0.00154674,0.00088840,0.00013016,0.0
 0024637,-0.00040987,-0.00005594,0.00001688,0.00002724,0.00250282,0.023
 77089,-0.05099106,0.00033886,0.00066358,-0.00017873,0.00123538,0.03826
 708,-0.01668296,-0.00036815,-0.00026924,0.00052436,0.00014811,-0.00002
 937,0.00020996,0.00007776,0.00014407,0.00005889,-0.00001821,-0.0000949
 4,-0.00025880,-0.00000590,-0.00008747,-0.00004583,-0.00005705,0.000429
 69,0.00000426,-0.00001026,-0.00000529,0.00000687,0.00001136,0.00000328
 ,-0.00000868,0.00002643,-0.00000763,0.00002722,-0.00368665,-0.03679114
 ,0.06316736,0.00027316,-0.00011448,0.00019540,-0.00003891,-0.00015405,
 0.00025164,-0.00008571,-0.00012230,-0.00049449,-0.00072647,-0.00002187
 ,0.00017016,0.00037570,0.00015543,0.00052843,-0.00157618,-0.00234060,0
 .00175818,0.00006932,0.00011576,0.00001826,-0.23956744,-0.08420579,-0.
 10699417,0.00056171,0.00173804,0.00137270,0.00651600,0.00358013,0.0022
 3310,0.00009053,0.00041392,-0.00049260,-0.00020951,0.00047556,-0.00130
 161,0.00001315,0.00001084,-0.00002796,-0.00002367,-0.00002923,0.000054
 38,0.00000973,-0.00000233,0.00006131,0.00013469,-0.00030258,-0.0001762
 2,0.00000100,0.00001886,-0.00001008,0.00003106,0.00002124,0.00001771,-
 0.00004188,-0.00001212,-0.00003844,0.00053439,0.00090167,0.00116549,0.
 25254062,0.00000832,0.00004158,-0.00003787,0.00002813,-0.00081470,0.00
 013817,-0.00004298,-0.00031533,0.00008804,0.00015030,-0.00018422,0.001
 93967,0.00011875,0.00075325,-0.00085380,0.00013487,0.00127293,-0.00018
 176,-0.00002064,-0.00011745,0.00001483,-0.08511890,-0.08978057,-0.0493
 7821,0.00028172,0.00032908,-0.00085312,0.00957508,0.00318646,0.0067830
 9,-0.00103732,-0.00122500,0.00081478,-0.00004105,-0.00052054,0.0004613
 1,0.00003091,0.00009961,0.00003881,-0.00000898,-0.00002556,0.00010637,
 -0.00001810,-0.00000751,-0.00002657,0.00001036,0.00037335,0.00016532,0
 .00001698,-0.00001378,-0.00002403,-0.00005383,-0.00002708,-0.00000492,
 -0.00005568,0.00003592,-0.00003997,-0.02681802,-0.00909040,-0.01505707
 ,0.08956972,0.09000391,-0.00061037,0.00003853,0.00014366,-0.00011517,0
 .00138815,-0.00105114,0.00027184,0.00078320,0.00018708,0.00265094,-0.0
 0248183,-0.00270513,-0.00217072,0.00031839,0.00054099,0.00124427,0.001
 92118,-0.00132922,-0.00011477,-0.00007969,0.00008995,-0.09695078,-0.04
 491017,-0.10424026,-0.00004956,-0.00176358,-0.00119205,-0.02886233,-0.
 00771063,-0.02636428,-0.00221424,-0.00006371,0.00110189,0.00019231,-0.
 00040996,0.00088628,-0.00002677,-0.00010800,-0.00000123,0.00012768,0.0
 0016951,-0.00027639,0.00001967,0.00002800,-0.00002470,-0.00024782,-0.0
 0012174,-0.00013644,0.00000007,-0.00002308,-0.00002988,0.00000075,-0.0
 0001641,-0.00003991,-0.00002046,0.00000265,-0.00000066,0.00411991,0.00
 047573,0.00372622,0.11292448,0.04727870,0.12262398,-0.00001687,0.00004
 393,-0.00015162,0.00033957,-0.00042214,-0.00006544,0.00007065,0.000253
 38,0.00000422,0.00034133,0.00052925,-0.00317545,0.00100588,0.00009390,
 -0.00084591,0.00042680,0.00088271,-0.00045459,-0.00003626,-0.00004991,
 0.00000281,-0.24607169,0.10624014,0.08403358,-0.00004418,-0.00027047,-
 0.00048338,-0.00171800,-0.00079037,-0.00001813,-0.00142208,-0.00024801
 ,0.00087791,0.00003121,-0.00027632,0.00039551,0.00004219,0.00002425,0.
 00000561,-0.00001878,-0.00001059,0.00002104,-0.00001067,-0.00004962,-0
 .00000670,0.00081498,0.00039514,-0.00118693,0.00000251,-0.00001287,-0.
 00000722,-0.00001688,-0.00001153,-0.00000517,-0.00000391,0.00001069,-0
 .00000313,0.00426991,-0.00214297,-0.00244800,-0.01719111,0.01281216,0.
 00928321,0.25896955,-0.00010309,0.00011542,0.00004730,-0.00020406,0.00
 004973,-0.00010717,-0.00031791,0.00042707,0.00038448,-0.00058306,0.000
 31843,0.00171583,0.00086232,-0.00022275,0.00185125,0.00007695,0.000287
 36,-0.00010933,0.00000699,-0.00000105,-0.00000968,0.10915305,-0.109642
 90,-0.04763971,0.00006355,-0.00069096,-0.00029059,-0.00862078,0.002219
 46,0.00544957,-0.00064940,-0.00002407,0.00024105,0.00003922,-0.0000304
 4,0.00011277,-0.00000886,-0.00000120,0.00000168,-0.00001973,-0.0000606
 9,-0.00002315,-0.00003513,-0.00011805,0.00010966,0.00013180,0.00052996
 ,0.00079977,0.00000244,-0.00000434,-0.00000066,-0.00000511,-0.00000152
 ,0.00000222,-0.00000437,0.00000286,-0.00000295,0.02716122,-0.01148841,
 -0.01106779,-0.01014168,0.00681649,0.00569738,-0.11675823,0.11102003,0
 .00031616,-0.00022194,0.00012598,-0.00029063,0.00006768,0.00041714,0.0
 0157097,-0.00018708,-0.00077970,0.00311958,-0.00137820,-0.00016250,-0.
 00303294,0.00219765,-0.00484063,0.00036383,0.00072826,-0.00043564,-0.0
 0003450,-0.00003569,-0.00000047,0.07084488,-0.03909206,-0.08085780,-0.
 00054658,0.00028467,-0.00058994,0.03139026,-0.01511963,-0.02038992,-0.
 00118073,-0.00019896,0.00085942,0.00003414,-0.00023155,0.00038812,-0.0
 0007446,0.00002295,0.00002753,-0.00000867,0.00000767,-0.00000397,-0.00
 010287,0.00012694,-0.00045853,-0.00127822,0.00086123,-0.00102465,0.000
 00048,-0.00000674,-0.00000138,-0.00000297,-0.00000743,-0.00000498,0.00
 000730,0.00000622,0.00000687,-0.00439788,0.00079574,0.00259326,-0.0112
 1978,0.00892251,0.00765300,-0.08580834,0.04301381,0.09726962,0.0006258
 4,-0.00135486,-0.00083677,-0.00056969,0.00008797,0.00107975,-0.0033269
 1,0.00083553,-0.00125734,-0.00110757,-0.00007184,-0.00186709,0.0096993
 4,0.02174370,-0.01410850,-0.00039518,-0.00084242,-0.00300776,-0.000274
 87,-0.00060290,0.00052479,-0.00006942,0.00200781,-0.00020324,-0.081913
 63,-0.06712413,0.04756283,0.00176968,-0.00090221,0.00094996,-0.0093854
 0,-0.01688587,0.00869127,0.00019322,-0.00030240,-0.00029925,-0.0000633
 1,0.00030281,-0.00003621,0.00003882,0.00007227,0.00007068,0.00012504,0
 .00037155,-0.00007761,0.00000038,-0.00010087,0.00003296,-0.00006012,-0
 .00007637,-0.00003443,-0.00020918,-0.00009335,-0.00017410,0.00005498,0
 .00003246,-0.00001399,-0.00080094,-0.00006346,0.00078313,-0.00029768,-
 0.00025585,0.00040895,-0.00007511,-0.00016302,-0.00007031,0.09131072,-
 0.00034212,0.00039802,0.00050458,0.00010944,-0.00005852,-0.00051019,0.
 00182092,-0.00099503,-0.00030293,0.00073072,-0.00007525,0.00070248,-0.
 00252867,-0.01213885,0.01031339,-0.00071295,-0.00009117,-0.00438170,-0
 .00036010,-0.00052221,0.00060246,-0.00044531,-0.00020852,0.00016543,-0
 .07052334,-0.20880188,0.10479437,-0.00134375,0.00111655,0.00071097,-0.
 01030086,-0.01990327,0.00982221,0.00041074,0.00089400,0.00021010,0.000
 09594,-0.00008668,0.00002249,-0.00000036,-0.00001920,-0.00003470,-0.00
 002867,0.00000253,0.00000766,0.00004583,0.00006673,-0.00000828,-0.0000
 8367,-0.00009217,-0.00006587,-0.00018378,-0.00007778,-0.00013647,0.000
 04114,0.00004024,0.00001126,0.00078547,0.00047069,-0.00032840,-0.00002
 436,-0.00055991,-0.00017038,-0.00012553,0.00037607,-0.00030601,0.07999
 827,0.22793281,-0.00052711,-0.00048207,-0.00049947,0.00005674,0.000043
 34,0.00007540,-0.00140715,0.00122382,-0.00012887,-0.00031339,0.0000730
 2,-0.00033049,0.00323440,0.01007282,-0.00887314,-0.00105016,-0.0004447
 2,-0.00607888,-0.00053267,-0.00050504,0.00072072,0.00062667,-0.0007906
 0,0.00008505,0.05244958,0.11403899,-0.12394083,0.00094934,-0.00055874,
 -0.00063395,-0.01290394,-0.02541021,0.01077940,0.00122678,0.00137935,0
 .00163425,-0.00012441,0.00009755,-0.00005150,0.00001463,0.00008692,0.0
 0004634,0.00002952,0.00042911,0.00038434,-0.00002899,-0.00003035,0.000
 02318,-0.00010555,-0.00010484,-0.00007474,-0.00016446,-0.00011104,-0.0
 0012432,0.00007794,0.00005456,0.00003667,0.00035548,-0.00010823,0.0000
 9754,0.00028125,-0.00008019,0.00000029,0.00007484,-0.00011653,0.000148
 65,-0.04833128,-0.11666265,0.13553206,-0.00002279,0.00000222,-0.000091
 46,0.00020064,0.00003764,-0.00026286,-0.00002132,-0.00080393,0.0014486
 4,-0.00020405,-0.00023745,0.00146371,-0.01851224,0.00785744,0.01719543
 ,0.00278432,0.00091413,-0.00347118,-0.00080162,0.00066336,0.00009446,0
 .00002040,0.00009462,-0.00059046,-0.15303128,0.05714186,0.11654003,-0.
 00350864,0.00350850,-0.00302417,0.01149749,-0.01178767,-0.01702656,-0.
 00035179,0.00006302,0.00145567,0.00000276,0.00001936,0.00000203,0.0000
 5319,-0.00000854,-0.00006224,0.00047871,0.00035598,-0.00088013,-0.0002
 9803,0.00008002,-0.00024617,-0.00019820,-0.00019601,-0.00008888,0.0000
 7188,0.00002377,0.00000108,0.00008300,0.00002076,0.00011339,0.00010451
 ,0.00011036,-0.00006464,-0.00016711,-0.00012503,-0.00003395,0.00001716
 ,0.00005274,0.00003190,-0.00561251,0.00319360,0.00628327,0.16707131,-0
 .00033420,0.00012426,-0.00010927,0.00003241,0.00000919,-0.00009967,0.0
 0007460,0.00025423,-0.00102931,0.00049617,0.00012978,-0.00056932,0.014
 52364,-0.00621098,-0.01096915,0.00230879,0.00316290,-0.00590753,-0.000
 66191,0.00046274,0.00019177,-0.00058585,-0.00028567,0.00070341,0.05415
 196,-0.07954632,-0.05735388,0.00247711,-0.00118195,0.00262246,0.001768
 46,-0.01141662,-0.01966552,0.00067139,0.00060471,0.00324978,-0.0000372
 4,0.00000676,-0.00001728,-0.00004162,0.00000901,0.00003563,0.00011494,
 -0.00005243,0.00094990,0.00018389,-0.00011440,0.00010682,-0.00011294,-
 0.00017021,-0.00003037,0.00008522,0.00000753,0.00001839,0.00010928,0.0
 0003077,0.00018180,0.00021346,0.00030550,-0.00008834,-0.00013836,-0.00
 013597,-0.00005749,0.00000207,0.00020960,-0.00017571,-0.01617490,0.011
 05852,0.01785889,-0.05978204,0.08440950,0.00019842,-0.00002683,0.00022
 674,-0.00006742,0.00005859,0.00012039,-0.00244677,0.00114908,-0.000118
 88,-0.00082313,-0.00010499,0.00053512,-0.00922691,0.00594919,0.0100217
 5,0.00234868,0.00502736,-0.00317148,-0.00031743,0.00007740,-0.00021580
 ,0.00024026,0.00027978,-0.00045345,0.12059260,-0.06111007,-0.18053676,
 -0.00278404,0.00243872,-0.00176966,-0.00040775,-0.01636595,-0.02121049
 ,0.00039194,-0.00062947,0.00280301,-0.00001371,0.00000536,-0.00001993,
 0.00001324,-0.00000074,-0.00000621,-0.00037746,0.00037520,-0.00029641,
 -0.00028373,-0.00004527,-0.00016819,-0.00004044,-0.00013439,0.00003415
 ,0.00003331,-0.00001829,0.00004709,0.00003022,-0.00003251,0.00012302,-
 0.00006083,-0.00009675,0.00007218,-0.00046426,-0.00004036,0.00011011,-
 0.00002409,-0.00005134,0.00009744,0.01003605,-0.00507270,-0.01020832,-
 0.11787749,0.07066998,0.20518334,0.00059173,0.00019746,-0.00006963,-0.
 00028977,-0.00003784,0.00044750,-0.00083521,0.00076716,-0.00017772,-0.
 00045629,0.00057543,-0.00027009,-0.00177979,-0.00315923,-0.00332680,0.
 00706632,-0.00254890,0.02277491,-0.00136012,0.00109095,-0.00020834,-0.
 00005401,-0.00056453,-0.00132779,-0.00773288,0.01029832,-0.00837726,0.
 00040321,-0.00007804,-0.00015142,-0.06503963,0.02449840,-0.13054276,-0
 .00050094,-0.00707760,0.00252630,-0.00008795,-0.00001513,-0.00004749,-
 0.00002345,-0.00003900,0.00002893,-0.00002626,-0.00019798,-0.00003373,
 -0.00007015,0.00008885,-0.00003011,-0.00058440,-0.00057577,0.00012579,
 0.00016283,0.00031429,-0.00003935,0.00014399,-0.00095740,-0.00019908,-
 0.00020686,-0.00006175,0.00016582,-0.00122540,0.00085907,0.00017283,0.
 00029378,0.00006416,0.00036938,0.00034348,-0.00022858,-0.00017133,0.00
 034423,0.00065566,0.00133074,0.07092354,0.00026653,0.00014432,-0.00000
 586,-0.00010063,0.00001080,0.00002972,-0.00076197,0.00055828,-0.000475
 40,0.00007213,-0.00002287,-0.00004363,0.00007576,-0.00236306,-0.001192
 52,0.02076484,-0.00243912,0.01705501,-0.00086267,0.00033371,0.00075832
 ,0.00009470,0.00020047,0.00052695,-0.00619586,0.00781434,-0.02343157,0
 .00005965,0.00004701,-0.00019867,0.01909569,-0.12010343,0.15794201,-0.
 00690502,-0.00236346,0.00497745,-0.00005733,-0.00001843,-0.00002686,-0
 .00000536,-0.00001433,-0.00000245,-0.00012254,-0.00012837,0.00000751,0
 .00002115,0.00001656,0.00000045,0.00016089,-0.00000747,-0.00043807,0.0
 0039838,0.00026850,-0.00050770,-0.00079193,-0.00085108,-0.00156809,-0.
 00019135,-0.00005721,-0.00011642,0.00060857,-0.00009455,-0.00018474,-0
 .00011906,-0.00008610,-0.00007434,-0.00043790,0.00127430,0.00004684,-0
 .00119869,-0.00167047,-0.00230099,-0.02386800,0.11955167,-0.00022371,0
 .00022012,0.00001195,0.00013549,-0.00003558,-0.00020386,-0.00003423,-0
 .00017808,0.00014130,0.00013585,-0.00011960,0.00009557,0.00068574,-0.0
 0100571,-0.00042177,-0.00142343,0.00324131,-0.01285301,0.00026164,-0.0
 0191826,0.00082917,-0.00002255,0.00002856,0.00029053,-0.00178392,0.007
 17754,-0.01042212,-0.00002940,-0.00004373,-0.00011226,-0.11442420,0.14
 071605,-0.33194205,0.00074930,0.00380437,0.00301667,-0.00000089,0.0000
 0673,0.00000517,-0.00001100,-0.00001230,-0.00001315,-0.00014044,-0.000
 04296,-0.00001720,0.00002690,-0.00001097,0.00001819,0.00030493,0.00025
 667,-0.00014430,-0.00020858,-0.00013785,-0.00031408,-0.00047430,-0.000
 61943,0.00011334,0.00000548,0.00003480,-0.00000046,0.00018714,-0.00017
 373,0.00032783,-0.00001464,-0.00000788,-0.00003694,0.00017751,0.000112
 88,0.00138060,-0.00090939,-0.00051599,-0.00119875,0.11703070,-0.150776
 96,0.35144963\\-0.00000013,-0.00000005,-0.00000007,-0.00000011,-0.0000
 0050,-0.00000082,-0.00000025,-0.00000022,0.00000022,0.00000008,-0.0000
 0111,-0.00000020,0.00000063,0.00000051,-0.00000005,0.00000212,0.000005
 06,-0.00000636,0.,-0.00000052,0.00000086,0.00000007,-0.00000064,0.0000
 0035,0.00000086,0.00000122,0.00000150,0.00000021,0.00000003,-0.0000001
 8,-0.00000308,-0.00000335,0.00000199,-0.00000006,-0.00000069,0.0000031
 5,0.,-0.00000053,-0.00000016,-0.00000013,-0.00000068,-0.00000023,0.000
 00030,-0.00000007,-0.00000009,-0.00000005,-0.00000059,-0.00000030,-0.0
 0000023,0.00000104,0.00000017,-0.00000049,0.00000091,0.00000012,-0.000
 00057,0.00000079,-0.00000017,0.00000025,-0.00000042,-0.00000016,0.0000
 0003,-0.00000032,0.00000004,0.00000035,-0.00000031,0.00000031,0.000000
 15,-0.00000018,0.00000020,0.00000008,0.00000021,-0.00000022,-0.0000000
 4,0.00000041,0.00000008\\\@


 Children are likely to live up to what you believe of them.
 -- Lady Bird Johnson
 Job cpu time:  0 days  1 hours 27 minutes 36.3 seconds.
 File lengths (MBytes):  RWF=    138 Int=      0 D2E=      0 Chk=      4 Scr=      1
 Normal termination of Gaussian 09 at Fri Feb 16 21:27:26 2018.
