 Entering Gaussian System, Link 0=g09
 Initial command:
 /home/fb_chem/chemsoft/lx24-amd64/Gaussian_09_C.01_NBO_3.1_64_istanbul-64/g09/l1.exe /local/2400049.1.parallel_long/Gau-28026.inp -scrdir=/local/2400049.1.parallel_long/
 Entering Link 1 = /home/fb_chem/chemsoft/lx24-amd64/Gaussian_09_C.01_NBO_3.1_64_istanbul-64/g09/l1.exe PID=     28027.
  
 Copyright (c) 1988,1990,1992,1993,1995,1998,2003,2009,2011,
            Gaussian, Inc.  All Rights Reserved.
  
 This is part of the Gaussian(R) 09 program.  It is based on
 the Gaussian(R) 03 system (copyright 2003, Gaussian, Inc.),
 the Gaussian(R) 98 system (copyright 1998, Gaussian, Inc.),
 the Gaussian(R) 94 system (copyright 1995, Gaussian, Inc.),
 the Gaussian 92(TM) system (copyright 1992, Gaussian, Inc.),
 the Gaussian 90(TM) system (copyright 1990, Gaussian, Inc.),
 the Gaussian 88(TM) system (copyright 1988, Gaussian, Inc.),
 the Gaussian 86(TM) system (copyright 1986, Carnegie Mellon
 University), and the Gaussian 82(TM) system (copyright 1983,
 Carnegie Mellon University). Gaussian is a federally registered
 trademark of Gaussian, Inc.
  
 This software contains proprietary and confidential information,
 including trade secrets, belonging to Gaussian, Inc.
  
 This software is provided under written license and may be
 used, copied, transmitted, or stored only in accord with that
 written license.
  
 The following legend is applicable only to US Government
 contracts under FAR:
  
                    RESTRICTED RIGHTS LEGEND
  
 Use, reproduction and disclosure by the US Government is
 subject to restrictions as set forth in subparagraphs (a)
 and (c) of the Commercial Computer Software - Restricted
 Rights clause in FAR 52.227-19.
  
 Gaussian, Inc.
 340 Quinnipiac St., Bldg. 40, Wallingford CT 06492
  
  
 ---------------------------------------------------------------
 Warning -- This program may not be used in any manner that
 competes with the business of Gaussian, Inc. or will provide
 assistance to any competitor of Gaussian, Inc.  The licensee
 of this program is prohibited from giving any competitor of
 Gaussian, Inc. access to this program.  By using this program,
 the user acknowledges that Gaussian, Inc. is engaged in the
 business of creating and licensing software in the field of
 computational chemistry and represents and warrants to the
 licensee that it is not a competitor of Gaussian, Inc. and that
 it will not use this program in any manner prohibited above.
 ---------------------------------------------------------------
  

 Cite this work as:
 Gaussian 09, Revision C.01,
 M. J. Frisch, G. W. Trucks, H. B. Schlegel, G. E. Scuseria, 
 M. A. Robb, J. R. Cheeseman, G. Scalmani, V. Barone, B. Mennucci, 
 G. A. Petersson, H. Nakatsuji, M. Caricato, X. Li, H. P. Hratchian, 
 A. F. Izmaylov, J. Bloino, G. Zheng, J. L. Sonnenberg, M. Hada, 
 M. Ehara, K. Toyota, R. Fukuda, J. Hasegawa, M. Ishida, T. Nakajima, 
 Y. Honda, O. Kitao, H. Nakai, T. Vreven, J. A. Montgomery, Jr., 
 J. E. Peralta, F. Ogliaro, M. Bearpark, J. J. Heyd, E. Brothers, 
 K. N. Kudin, V. N. Staroverov, T. Keith, R. Kobayashi, J. Normand, 
 K. Raghavachari, A. Rendell, J. C. Burant, S. S. Iyengar, J. Tomasi, 
 M. Cossi, N. Rega, J. M. Millam, M. Klene, J. E. Knox, J. B. Cross, 
 V. Bakken, C. Adamo, J. Jaramillo, R. Gomperts, R. E. Stratmann, 
 O. Yazyev, A. J. Austin, R. Cammi, C. Pomelli, J. W. Ochterski, 
 R. L. Martin, K. Morokuma, V. G. Zakrzewski, G. A. Voth, 
 P. Salvador, J. J. Dannenberg, S. Dapprich, A. D. Daniels, 
 O. Farkas, J. B. Foresman, J. V. Ortiz, J. Cioslowski, 
 and D. J. Fox, Gaussian, Inc., Wallingford CT, 2010.
 
 ******************************************
 Gaussian 09:  AM64L-G09RevC.01 23-Sep-2011
                17-Feb-2018 
 ******************************************
 %nprocs=2
 Will use up to    2 processors via shared memory.
 %chk=frag31-conf1.chk
 ----------------------------------------------------------------------
 #HF/6-31G* Geom=AllCheck Guess=Read Pop=(MK,ReadRadii) Integral=(Grid=
 UltraFine) iop(6/33=2)
 ----------------------------------------------------------------------
 1/29=7,38=1/1;
 2/12=2,40=1/2;
 3/5=1,6=6,7=1,11=9,14=-4,16=1,25=1,30=1,75=-5,116=-2/1,2,3;
 4/5=1/1;
 5/5=2,38=6/2;
 6/7=2,8=2,9=2,10=2,15=8,20=101,28=1,33=2/1,2;
 99/5=1,9=1/99;
 Structure from the checkpoint file:  frag31-conf1.chk
 -----------------------------
 Optimization for frag31-conf1
 -----------------------------
 Charge =  1 Multiplicity = 1
 Redundant internal coordinates found in file.
 C,0,1.6270690289,-0.7505759922,-0.0684397095
 C,0,0.5077983384,-0.3781640747,0.6800583486
 C,0,2.687445229,-1.3852091884,0.5689294533
 C,0,0.4893309233,-0.6590679656,2.0304034157
 C,0,2.6397373331,-1.6620127563,1.9332280235
 C,0,5.2986571557,-0.5022819284,3.0022654375
 C,0,6.2761274862,0.168979387,3.9405033962
 C,0,1.4234626399,-1.5833299452,4.0871060348
 C,0,3.7855776081,-2.3774246243,2.6290471928
 N,0,1.5299135902,-1.2912473824,2.6367575434
 N,0,4.5210573702,-1.5169373573,3.5487889662
 O,0,5.1632222027,-0.2012206714,1.8261945076
 H,0,1.6763934602,-0.5377193087,-1.1314649958
 H,0,-0.3399197769,0.1267391806,0.2312571038
 H,0,3.5868041207,-1.6499264929,0.0271079547
 H,0,-0.3453707195,-0.3968299454,2.6682091888
 H,0,7.278467309,-0.2371112961,3.7610753589
 H,0,6.3089003908,1.2364388446,3.7120005275
 H,0,6.026046506,0.027301011,4.9958101296
 H,0,1.3434803392,-2.6626057582,4.2384054058
 H,0,2.3062175421,-1.1946992581,4.5941090672
 H,0,0.5292955253,-1.0999101178,4.4771360708
 H,0,3.406910006,-3.2357371968,3.192502335
 H,0,4.4439383139,-2.7611989761,1.8427339122
 H,0,4.8218294253,-1.9305443884,4.4230937767
 Recover connectivity data from disk.
                          Input orientation:                          
 ---------------------------------------------------------------------
 Center     Atomic      Atomic             Coordinates (Angstroms)
 Number     Number       Type             X           Y           Z
 ---------------------------------------------------------------------
      1          6           0        1.627069   -0.750576   -0.068440
      2          6           0        0.507798   -0.378164    0.680058
      3          6           0        2.687445   -1.385209    0.568929
      4          6           0        0.489331   -0.659068    2.030403
      5          6           0        2.639737   -1.662013    1.933228
      6          6           0        5.298657   -0.502282    3.002265
      7          6           0        6.276127    0.168979    3.940503
      8          6           0        1.423463   -1.583330    4.087106
      9          6           0        3.785578   -2.377425    2.629047
     10          7           0        1.529914   -1.291247    2.636758
     11          7           0        4.521057   -1.516937    3.548789
     12          8           0        5.163222   -0.201221    1.826195
     13          1           0        1.676393   -0.537719   -1.131465
     14          1           0       -0.339920    0.126739    0.231257
     15          1           0        3.586804   -1.649926    0.027108
     16          1           0       -0.345371   -0.396830    2.668209
     17          1           0        7.278467   -0.237111    3.761075
     18          1           0        6.308900    1.236439    3.712001
     19          1           0        6.026047    0.027301    4.995810
     20          1           0        1.343480   -2.662606    4.238405
     21          1           0        2.306218   -1.194699    4.594109
     22          1           0        0.529296   -1.099910    4.477136
     23          1           0        3.406910   -3.235737    3.192502
     24          1           0        4.443938   -2.761199    1.842734
     25          1           0        4.821829   -1.930544    4.423094
 ---------------------------------------------------------------------
                    Distance matrix (angstroms):
                    1          2          3          4          5
     1  C    0.000000
     2  C    1.397035   0.000000
     3  C    1.390466   2.403612   0.000000
     4  C    2.389135   1.379377   2.737680   0.000000
     5  C    2.421340   2.786371   1.392913   2.374782   0.000000
     6  C    4.792853   5.325446   3.676835   4.909044   3.091548
     7  C    6.207330   6.648570   5.163492   6.149891   4.539275
     8  C    4.243053   3.728115   3.743591   2.440674   2.474814
     9  C    3.818669   4.305745   2.536626   3.765152   1.519516
    10  N    2.760409   2.388956   2.371628   1.360194   1.365331
    11  N    4.695404   5.062872   3.501292   4.392750   2.484039
    12  O    4.049174   4.797698   3.018612   4.700700   2.917764
    13  H    1.085248   2.161640   2.152163   3.379535   3.403588
    14  H    2.174522   1.083963   3.400728   2.131215   3.869715
    15  H    2.158361   3.394702   1.082817   3.819599   2.128468
    16  H    3.391888   2.163559   3.818618   1.082724   3.324418
    17  H    6.845958   7.440062   5.708363   7.018949   5.185478
    18  H    6.337152   6.741840   5.465059   6.347291   5.002780
    19  H    6.752979   7.017206   5.721776   6.318224   4.868293
    20  H    4.720720   4.310322   4.111330   3.101453   2.827598
    21  H    4.732637   4.384157   4.047678   3.187564   2.722114
    22  H    4.689286   3.865123   4.473599   2.486451   3.352819
    23  H    4.469631   4.783612   3.290170   4.062261   2.156602
    24  H    3.953472   4.745932   2.569279   4.482532   2.114602
    25  H    5.636727   5.918705   4.439321   5.110006   3.321606
                    6          7          8          9         10
     6  C    0.000000
     7  C    1.512062   0.000000
     8  C    4.166855   5.161437   0.000000
     9  C    2.438209   3.795646   2.887232   0.000000
    10  N    3.867750   5.134059   1.483292   2.503570   0.000000
    11  N    1.390279   2.464960   3.144724   1.458525   3.135232
    12  O    1.221525   2.417831   4.583421   2.697840   3.878931
    13  H    5.496342   6.883447   5.328298   4.687710   3.845616
    14  H    6.314088   7.585010   4.571808   5.388874   3.360565
    15  H    3.619267   5.084835   4.600877   2.709032   3.342113
    16  H    5.654889   6.766322   2.559262   4.581378   2.077899
    17  H    2.136763   1.096261   6.016617   4.250024   5.951568
    18  H    2.132479   1.092134   5.653256   4.538717   5.512174
    19  H    2.187184   1.093748   4.960207   4.050182   5.245847
    20  H    4.673164   5.695404   1.092760   2.938571   2.116756
    21  H    3.459495   4.248177   1.089652   2.729251   2.107889
    22  H    5.027844   5.909664   1.088739   3.956115   2.103530
    23  H    3.329666   4.514865   2.732184   1.094336   2.759168
    24  H    2.679135   4.042709   3.943077   1.094993   3.358984
    25  H    2.070278   2.599207   3.432542   2.119463   3.799527
                   11         12         13         14         15
    11  N    0.000000
    12  O    2.260712   0.000000
    13  H    5.563790   4.584643   0.000000
    14  H    6.110384   5.738986   2.522704   0.000000
    15  H    3.645923   2.796526   2.495789   4.314786   0.000000
    16  H    5.070718   5.576006   4.306379   2.492567   4.899762
    17  H    3.047348   2.866935   7.443826   8.404274   5.437549
    18  H    3.286959   2.633573   6.933031   7.586423   5.414734
    19  H    2.596832   3.292894   7.535398   7.952131   5.783684
    20  H    3.447481   5.144668   5.784590   5.164448   4.877812
    21  H    2.470232   4.100101   5.797456   5.270932   4.764938
    22  H    4.119454   5.413724   5.752243   4.504186   5.427120
    23  H    2.079071   3.762940   5.382442   5.840715   3.544979
    24  H    2.112997   2.659160   4.631309   5.815698   2.294799
    25  H    1.012889   3.138630   6.533518   6.960429   4.574792
                   16         17         18         19         20
    16  H    0.000000
    17  H    7.703426   0.000000
    18  H    6.930829   1.764601   0.000000
    19  H    6.796512   1.778494   1.786110   0.000000
    20  H    3.232874   6.429225   6.335223   5.453044   0.000000
    21  H    3.372922   5.131685   4.765503   3.935959   1.791127
    22  H    2.128751   6.841673   6.280748   5.635060   1.778175
    23  H    4.734331   4.929908   5.356471   4.556228   2.383303
    24  H    5.404547   4.252718   4.790965   4.496742   3.919413
    25  H    5.668497   3.056314   3.570268   2.368819   3.559345
                   21         22         23         24         25
    21  H    0.000000
    22  H    1.783289   0.000000
    23  H    2.709587   3.806929   0.000000
    24  H    3.820188   5.002438   1.767057   0.000000
    25  H    2.626598   4.372496   2.284706   2.736977   0.000000
 Stoichiometry    C9H13N2O(1+)
 Framework group  C1[X(C9H13N2O)]
 Deg. of freedom    69
 Full point group                 C1      NOp   1
 Largest Abelian subgroup         C1      NOp   1
 Largest concise Abelian subgroup C1      NOp   1
                         Standard orientation:                         
 ---------------------------------------------------------------------
 Center     Atomic      Atomic             Coordinates (Angstroms)
 Number     Number       Type             X           Y           Z
 ---------------------------------------------------------------------
      1          6           0       -2.275245   -1.656445    0.037126
      2          6           0       -2.961464   -0.677976   -0.686344
      3          6           0       -1.094656   -1.314654    0.687344
      4          6           0       -2.446146    0.600895   -0.726530
      5          6           0       -0.599951   -0.013606    0.634919
      6          6           0        2.338247   -0.389701   -0.250073
      7          6           0        3.658533   -0.114069   -0.933596
      8          6           0       -0.820724    2.325452   -0.142754
      9          6           0        0.676594    0.370235    1.364320
     10          7           0       -1.296071    0.922019   -0.075120
     11          7           0        1.782481    0.667756    0.461111
     12          8           0        1.755547   -1.462312   -0.295792
     13          1           0       -2.649848   -2.673966    0.082817
     14          1           0       -3.880632   -0.896838   -1.217575
     15          1           0       -0.516461   -2.057777    1.222087
     16          1           0       -2.926451    1.405283   -1.269264
     17          1           0        4.468582   -0.536160   -0.327420
     18          1           0        3.670284   -0.625341   -1.898593
     19          1           0        3.852332    0.952223   -1.081074
     20          1           0       -0.907822    2.789488    0.842746
     21          1           0        0.217169    2.334040   -0.474487
     22          1           0       -1.440805    2.871592   -0.851685
     23          1           0        0.501777    1.249347    1.992151
     24          1           0        0.927165   -0.465407    2.026081
     25          1           0        2.384338    1.442801    0.712143
 ---------------------------------------------------------------------
 Rotational constants (GHZ):      1.6505855      0.6436567      0.5433379
 Standard basis: 6-31G(d) (6D, 7F)
 There are   206 symmetry adapted basis functions of A   symmetry.
 Integral buffers will be    131072 words long.
 Raffenetti 1 integral format.
 Two-electron integral symmetry is turned on.
   206 basis functions,   388 primitive gaussians,   206 cartesian basis functions
    44 alpha electrons       44 beta electrons
       nuclear repulsion energy       707.7538738604 Hartrees.
 NAtoms=   25 NActive=   25 NUniq=   25 SFac= 1.00D+00 NAtFMM=   60 NAOKFM=F Big=F
 One-electron integrals computed using PRISM.
 NBasis=   206 RedAO= T  NBF=   206
 NBsUse=   206 1.00D-06 NBFU=   206
 Initial guess read from the checkpoint file:  frag31-conf1.chk
 B after Tr=     0.000000    0.000000    0.000000
         Rot=    1.000000    0.000000    0.000000    0.000000 Ang=   0.00 deg.
 Initial guess orbital symmetries:
       Occupied  (A) (A) (A) (A) (A) (A) (A) (A) (A) (A) (A) (A)
                 (A) (A) (A) (A) (A) (A) (A) (A) (A) (A) (A) (A)
                 (A) (A) (A) (A) (A) (A) (A) (A) (A) (A) (A) (A)
                 (A) (A) (A) (A) (A) (A) (A) (A)
       Virtual   (A) (A) (A) (A) (A) (A) (A) (A) (A) (A) (A) (A)
                 (A) (A) (A) (A) (A) (A) (A) (A) (A) (A) (A) (A)
                 (A) (A) (A) (A) (A) (A) (A) (A) (A) (A) (A) (A)
                 (A) (A) (A) (A) (A) (A) (A) (A) (A) (A) (A) (A)
                 (A) (A) (A) (A) (A) (A) (A) (A) (A) (A) (A) (A)
                 (A) (A) (A) (A) (A) (A) (A) (A) (A) (A) (A) (A)
                 (A) (A) (A) (A) (A) (A) (A) (A) (A) (A) (A) (A)
                 (A) (A) (A) (A) (A) (A) (A) (A) (A) (A) (A) (A)
                 (A) (A) (A) (A) (A) (A) (A) (A) (A) (A) (A) (A)
                 (A) (A) (A) (A) (A) (A) (A) (A) (A) (A) (A) (A)
                 (A) (A) (A) (A) (A) (A) (A) (A) (A) (A) (A) (A)
                 (A) (A) (A) (A) (A) (A) (A) (A) (A) (A) (A) (A)
                 (A) (A) (A) (A) (A) (A) (A) (A) (A) (A) (A) (A)
                 (A) (A) (A) (A) (A) (A)
 Requested convergence on RMS density matrix=1.00D-08 within 128 cycles.
 Requested convergence on MAX density matrix=1.00D-06.
 Requested convergence on             energy=1.00D-06.
 No special actions if energy rises.
 SCF Done:  E(RHF) =  -531.958115902     A.U. after   13 cycles
             Convg  =    0.9756D-08             -V/T =  2.0025

 **********************************************************************

            Population analysis using the SCF density.

 **********************************************************************

 Orbital symmetries:
 BldTbl:  Degeneracy threshold= 1.00D-02
       Occupied  (A) (A) (A) (A) (A) (A) (A) (A) (A) (A) (A) (A)
                 (A) (A) (A) (A) (A) (A) (A) (A) (A) (A) (A) (A)
                 (A) (A) (A) (A) (A) (A) (A) (A) (A) (A) (A) (A)
                 (A) (A) (A) (A) (A) (A) (A) (A)
       Virtual   (A) (A) (A) (A) (A) (A) (A) (A) (A) (A) (A) (A)
                 (A) (A) (A) (A) (A) (A) (A) (A) (A) (A) (A) (A)
                 (A) (A) (A) (A) (A) (A) (A) (A) (A) (A) (A) (A)
                 (A) (A) (A) (A) (A) (A) (A) (A) (A) (A) (A) (A)
                 (A) (A) (A) (A) (A) (A) (A) (A) (A) (A) (A) (A)
                 (A) (A) (A) (A) (A) (A) (A) (A) (A) (A) (A) (A)
                 (A) (A) (A) (A) (A) (A) (A) (A) (A) (A) (A) (A)
                 (A) (A) (A) (A) (A) (A) (A) (A) (A) (A) (A) (A)
                 (A) (A) (A) (A) (A) (A) (A) (A) (A) (A) (A) (A)
                 (A) (A) (A) (A) (A) (A) (A) (A) (A) (A) (A) (A)
                 (A) (A) (A) (A) (A) (A) (A) (A) (A) (A) (A) (A)
                 (A) (A) (A) (A) (A) (A) (A) (A) (A) (A) (A) (A)
                 (A) (A) (A) (A) (A) (A) (A) (A) (A) (A) (A) (A)
                 (A) (A) (A) (A) (A) (A)
 The electronic state is 1-A.
 Alpha  occ. eigenvalues --  -20.65869 -15.84332 -15.73226 -11.48456 -11.48436
 Alpha  occ. eigenvalues --  -11.47676 -11.43943 -11.43836 -11.43541 -11.41538
 Alpha  occ. eigenvalues --  -11.41038 -11.34892  -1.51356  -1.50260  -1.36789
 Alpha  occ. eigenvalues --   -1.28568  -1.24189  -1.14880  -1.14065  -1.08900
 Alpha  occ. eigenvalues --   -1.05075  -1.00411  -0.92575  -0.88453  -0.86097
 Alpha  occ. eigenvalues --   -0.83955  -0.82974  -0.80406  -0.79190  -0.78430
 Alpha  occ. eigenvalues --   -0.77635  -0.73941  -0.73453  -0.71164  -0.70940
 Alpha  occ. eigenvalues --   -0.69882  -0.69400  -0.68003  -0.66775  -0.62842
 Alpha  occ. eigenvalues --   -0.56556  -0.55749  -0.53850  -0.51104
 Alpha virt. eigenvalues --   -0.08531  -0.03564   0.05961   0.07105   0.08045
 Alpha virt. eigenvalues --    0.10956   0.11918   0.13452   0.14703   0.15920
 Alpha virt. eigenvalues --    0.16259   0.17300   0.17470   0.18090   0.19662
 Alpha virt. eigenvalues --    0.20853   0.22326   0.23470   0.25169   0.26284
 Alpha virt. eigenvalues --    0.29903   0.30795   0.31906   0.34127   0.35083
 Alpha virt. eigenvalues --    0.36362   0.44911   0.46635   0.49452   0.53029
 Alpha virt. eigenvalues --    0.54201   0.56215   0.58273   0.59987   0.61308
 Alpha virt. eigenvalues --    0.62769   0.63964   0.64644   0.66265   0.66292
 Alpha virt. eigenvalues --    0.67733   0.68104   0.69724   0.71748   0.72867
 Alpha virt. eigenvalues --    0.74367   0.77159   0.78616   0.79590   0.81120
 Alpha virt. eigenvalues --    0.83181   0.86256   0.88567   0.89946   0.92765
 Alpha virt. eigenvalues --    0.93001   0.94635   0.95971   0.97126   0.98435
 Alpha virt. eigenvalues --    0.99141   0.99559   1.00879   1.02463   1.04224
 Alpha virt. eigenvalues --    1.04557   1.05210   1.06366   1.07460   1.08077
 Alpha virt. eigenvalues --    1.10339   1.11032   1.12284   1.15254   1.16302
 Alpha virt. eigenvalues --    1.20882   1.24417   1.25244   1.30333   1.31129
 Alpha virt. eigenvalues --    1.33524   1.36697   1.37586   1.38364   1.44976
 Alpha virt. eigenvalues --    1.46622   1.51332   1.51810   1.54323   1.55858
 Alpha virt. eigenvalues --    1.57742   1.60678   1.60956   1.63528   1.72107
 Alpha virt. eigenvalues --    1.76758   1.79234   1.82889   1.88139   1.93132
 Alpha virt. eigenvalues --    1.94151   1.96569   1.99247   2.00359   2.00573
 Alpha virt. eigenvalues --    2.02888   2.05445   2.07076   2.08267   2.11122
 Alpha virt. eigenvalues --    2.14985   2.15730   2.16359   2.19560   2.24201
 Alpha virt. eigenvalues --    2.26126   2.27390   2.29096   2.32049   2.33989
 Alpha virt. eigenvalues --    2.37883   2.38762   2.39746   2.42157   2.43485
 Alpha virt. eigenvalues --    2.46121   2.47100   2.49023   2.50558   2.53970
 Alpha virt. eigenvalues --    2.56715   2.59931   2.65023   2.71746   2.73589
 Alpha virt. eigenvalues --    2.77812   2.78669   2.83397   2.84862   2.88106
 Alpha virt. eigenvalues --    2.90269   2.93568   2.96695   2.98612   3.05511
 Alpha virt. eigenvalues --    3.10551   3.24225   3.27884   3.34912   3.61941
 Alpha virt. eigenvalues --    4.25075   4.29823   4.30706   4.36401   4.41734
 Alpha virt. eigenvalues --    4.48279   4.54775   4.58880   4.62258   4.70836
 Alpha virt. eigenvalues --    4.78730   4.92110
          Condensed to atoms (all electrons):
              1          2          3          4          5          6
     1  C    4.851384   0.508395   0.516429  -0.048344  -0.042909   0.000018
     2  C    0.508395   4.940097  -0.035996   0.573704  -0.022087  -0.000007
     3  C    0.516429  -0.035996   4.921946  -0.026502   0.576360   0.000558
     4  C   -0.048344   0.573704  -0.026502   4.716095  -0.054598   0.000009
     5  C   -0.042909  -0.022087   0.576360  -0.054598   4.664605  -0.004890
     6  C    0.000018  -0.000007   0.000558   0.000009  -0.004890   4.212969
     7  C   -0.000001   0.000000   0.000023   0.000001  -0.000267   0.354819
     8  C   -0.000150   0.003180   0.002003  -0.034499  -0.031086   0.000060
     9  C    0.003034  -0.000135  -0.031081   0.001855   0.311925  -0.031974
    10  N   -0.033095  -0.030336  -0.033111   0.358140   0.335281  -0.000011
    11  N   -0.000046  -0.000002  -0.001170  -0.000006  -0.063575   0.239383
    12  O   -0.000198  -0.000001  -0.000431   0.000046  -0.005326   0.586560
    13  H    0.374717  -0.023776  -0.022594   0.002399   0.001957   0.000001
    14  H   -0.018659   0.375874   0.002059  -0.023815   0.000110   0.000000
    15  H   -0.019817   0.002121   0.372625   0.000077  -0.021287   0.000018
    16  H    0.002244  -0.019368  -0.000176   0.383630   0.002001   0.000001
    17  H    0.000000   0.000000   0.000000   0.000000  -0.000002  -0.026472
    18  H    0.000000   0.000000   0.000001   0.000000   0.000015  -0.029892
    19  H    0.000000   0.000000  -0.000001   0.000000  -0.000020  -0.038189
    20  H    0.000035  -0.000125   0.000008  -0.000008  -0.001565  -0.000004
    21  H    0.000021  -0.000092   0.000065   0.001207  -0.004010   0.000136
    22  H   -0.000024   0.000604  -0.000054  -0.001495   0.002082   0.000002
    23  H   -0.000067   0.000005   0.001372   0.000009  -0.043559   0.003758
    24  H    0.000317  -0.000007  -0.000721  -0.000076  -0.052691  -0.000546
    25  H    0.000001   0.000000  -0.000042   0.000001   0.003995  -0.013314
              7          8          9         10         11         12
     1  C   -0.000001  -0.000150   0.003034  -0.033095  -0.000046  -0.000198
     2  C    0.000000   0.003180  -0.000135  -0.030336  -0.000002  -0.000001
     3  C    0.000023   0.002003  -0.031081  -0.033111  -0.001170  -0.000431
     4  C    0.000001  -0.034499   0.001855   0.358140  -0.000006   0.000046
     5  C   -0.000267  -0.031086   0.311925   0.335281  -0.063575  -0.005326
     6  C    0.354819   0.000060  -0.031974  -0.000011   0.239383   0.586560
     7  C    5.255970  -0.000008   0.004749  -0.000015  -0.099226  -0.062952
     8  C   -0.000008   5.073880  -0.012212   0.165628  -0.009444   0.000014
     9  C    0.004749  -0.012212   4.975540  -0.046728   0.206928   0.014072
    10  N   -0.000015   0.165628  -0.046728   7.073916   0.003639  -0.000744
    11  N   -0.099226  -0.009444   0.206928   0.003639   7.377000  -0.107461
    12  O   -0.062952   0.000014   0.014072  -0.000744  -0.107461   8.166293
    13  H    0.000000   0.000004  -0.000062  -0.000106   0.000001  -0.000007
    14  H    0.000000  -0.000059   0.000004   0.002123   0.000000   0.000000
    15  H    0.000011  -0.000060  -0.002018   0.002561  -0.000088   0.001979
    16  H    0.000000  -0.003444  -0.000060  -0.037327   0.000003   0.000000
    17  H    0.377466   0.000000  -0.000221   0.000000   0.000689  -0.000162
    18  H    0.383408   0.000001  -0.000107   0.000000   0.003162   0.000912
    19  H    0.377524  -0.000007   0.000143   0.000002   0.004000   0.002200
    20  H    0.000000   0.393990  -0.001148  -0.038793  -0.000030   0.000000
    21  H   -0.000024   0.391067  -0.002874  -0.034287   0.007483  -0.000055
    22  H    0.000000   0.396639   0.000239  -0.032484   0.000153   0.000000
    23  H    0.000009  -0.001158   0.411652  -0.002831  -0.039626   0.000450
    24  H   -0.000043   0.000105   0.413757   0.002948  -0.038952   0.002168
    25  H    0.001041   0.000199  -0.027729  -0.000134   0.321243   0.002251
             13         14         15         16         17         18
     1  C    0.374717  -0.018659  -0.019817   0.002244   0.000000   0.000000
     2  C   -0.023776   0.375874   0.002121  -0.019368   0.000000   0.000000
     3  C   -0.022594   0.002059   0.372625  -0.000176   0.000000   0.000001
     4  C    0.002399  -0.023815   0.000077   0.383630   0.000000   0.000000
     5  C    0.001957   0.000110  -0.021287   0.002001  -0.000002   0.000015
     6  C    0.000001   0.000000   0.000018   0.000001  -0.026472  -0.029892
     7  C    0.000000   0.000000   0.000011   0.000000   0.377466   0.383408
     8  C    0.000004  -0.000059  -0.000060  -0.003444   0.000000   0.000001
     9  C   -0.000062   0.000004  -0.002018  -0.000060  -0.000221  -0.000107
    10  N   -0.000106   0.002123   0.002561  -0.037327   0.000000   0.000000
    11  N    0.000001   0.000000  -0.000088   0.000003   0.000689   0.003162
    12  O   -0.000007   0.000000   0.001979   0.000000  -0.000162   0.000912
    13  H    0.378327  -0.000937  -0.000940  -0.000059   0.000000   0.000000
    14  H   -0.000937   0.377887  -0.000064  -0.000454   0.000000   0.000000
    15  H   -0.000940  -0.000064   0.371376   0.000005   0.000000   0.000000
    16  H   -0.000059  -0.000454   0.000005   0.381979   0.000000   0.000000
    17  H    0.000000   0.000000   0.000000   0.000000   0.452750  -0.015486
    18  H    0.000000   0.000000   0.000000   0.000000  -0.015486   0.438804
    19  H    0.000000   0.000000   0.000000   0.000000  -0.021135  -0.020229
    20  H    0.000000   0.000001   0.000001   0.000065   0.000000   0.000000
    21  H    0.000000   0.000001   0.000001   0.000097   0.000001  -0.000003
    22  H    0.000000  -0.000003   0.000001   0.001040   0.000000   0.000000
    23  H    0.000001   0.000000   0.000037   0.000001   0.000001   0.000001
    24  H   -0.000004   0.000000   0.002006   0.000001   0.000024  -0.000009
    25  H    0.000000   0.000000  -0.000004   0.000000  -0.000093   0.000021
             19         20         21         22         23         24
     1  C    0.000000   0.000035   0.000021  -0.000024  -0.000067   0.000317
     2  C    0.000000  -0.000125  -0.000092   0.000604   0.000005  -0.000007
     3  C   -0.000001   0.000008   0.000065  -0.000054   0.001372  -0.000721
     4  C    0.000000  -0.000008   0.001207  -0.001495   0.000009  -0.000076
     5  C   -0.000020  -0.001565  -0.004010   0.002082  -0.043559  -0.052691
     6  C   -0.038189  -0.000004   0.000136   0.000002   0.003758  -0.000546
     7  C    0.377524   0.000000  -0.000024   0.000000   0.000009  -0.000043
     8  C   -0.000007   0.393990   0.391067   0.396639  -0.001158   0.000105
     9  C    0.000143  -0.001148  -0.002874   0.000239   0.411652   0.413757
    10  N    0.000002  -0.038793  -0.034287  -0.032484  -0.002831   0.002948
    11  N    0.004000  -0.000030   0.007483   0.000153  -0.039626  -0.038952
    12  O    0.002200   0.000000  -0.000055   0.000000   0.000450   0.002168
    13  H    0.000000   0.000000   0.000000   0.000000   0.000001  -0.000004
    14  H    0.000000   0.000001   0.000001  -0.000003   0.000000   0.000000
    15  H    0.000000   0.000001   0.000001   0.000001   0.000037   0.002006
    16  H    0.000000   0.000065   0.000097   0.001040   0.000001   0.000001
    17  H   -0.021135   0.000000   0.000001   0.000000   0.000001   0.000024
    18  H   -0.020229   0.000000  -0.000003   0.000000   0.000001  -0.000009
    19  H    0.504465   0.000000   0.000036   0.000000  -0.000018   0.000012
    20  H    0.000000   0.458346  -0.025134  -0.020329   0.001231  -0.000001
    21  H    0.000036  -0.025134   0.430401  -0.017778  -0.001020   0.000163
    22  H    0.000000  -0.020329  -0.017778   0.436890   0.000038   0.000002
    23  H   -0.000018   0.001231  -0.001020   0.000038   0.462398  -0.019121
    24  H    0.000012  -0.000001   0.000163   0.000002  -0.019121   0.441234
    25  H    0.000569   0.000054  -0.000302  -0.000006  -0.003404   0.000707
             25
     1  C    0.000001
     2  C    0.000000
     3  C   -0.000042
     4  C    0.000001
     5  C    0.003995
     6  C   -0.013314
     7  C    0.001041
     8  C    0.000199
     9  C   -0.027729
    10  N   -0.000134
    11  N    0.321243
    12  O    0.002251
    13  H    0.000000
    14  H    0.000000
    15  H   -0.000004
    16  H    0.000000
    17  H   -0.000093
    18  H    0.000021
    19  H    0.000569
    20  H    0.000054
    21  H   -0.000302
    22  H   -0.000006
    23  H   -0.003404
    24  H    0.000707
    25  H    0.306505
 Mulliken atomic charges:
              1
     1  C   -0.093287
     2  C   -0.272047
     3  C   -0.241571
     4  C    0.152170
     5  C    0.449541
     6  C    0.747006
     7  C   -0.592486
     8  C   -0.334648
     9  C   -0.187550
    10  N   -0.654236
    11  N   -0.804059
    12  O   -0.599608
    13  H    0.291078
    14  H    0.285933
    15  H    0.291459
    16  H    0.289818
    17  H    0.232641
    18  H    0.239400
    19  H    0.190649
    20  H    0.233408
    21  H    0.254901
    22  H    0.234482
    23  H    0.229840
    24  H    0.248726
    25  H    0.408440
 Sum of Mulliken atomic charges =   1.00000
 Mulliken charges with hydrogens summed into heavy atoms:
              1
     1  C    0.197791
     2  C    0.013886
     3  C    0.049888
     4  C    0.441988
     5  C    0.449541
     6  C    0.747006
     7  C    0.070204
     8  C    0.388142
     9  C    0.291017
    10  N   -0.654236
    11  N   -0.395618
    12  O   -0.599608
 Sum of Mulliken charges with hydrogens summed into heavy atoms =   1.00000
 DipInt: DoE/N= T F RetVal/Mat= T F Init=T NMatP=  1 IDeriv=0 Min/MaxMlt=  0  4
 Entering OneElI...
 OneElI was handed    33442981 working-precision words.
 Multipole integrals L=0 to 4 MinM= 0 MaxM= 0.
 Requested accuracy = 0.1000D-12
 PrsmSu:  NPrtUS=   1 ThrOK=F IAlg=1 NPAlg=1 LenDen=           0.
 Prism:   IPart=     0 DynPar=F LinDyn=F Incr=          25.
 PRISM was handed    33226607 working-precision words and  2513 shell-pairs
 IPart=  0 NShTot=        2513 NBatch=          56 AvBLen=        44.9
 PrSmSu:  NxtVal=             26.
 Electronic moments (au):
        -88.00000000         -1.35478711          1.66888946          0.34211054
      -1441.76192582       -516.91323937       -226.00861820          5.51451593
          4.62195854         -1.63606905      -1453.77969994       -340.76004934
       -105.92756714        593.76344045        717.34469911       1336.17498976
       -147.35915826        -27.80132158         14.95494361       -200.67503645
     -48132.21213374      -8175.25822134      -1852.16143515      -1310.57771654
       2610.91343825        373.41165194        341.86530025         65.94848193
        -99.61016438      -5766.94743939      -4024.91988377       -968.84893748
       -435.22619468        -46.73706272        -14.94389325
 Electronic spatial extent (au):  <R**2>=           2184.6838
 DipInt: DoE/N= F T RetVal/Mat= T F Init=T NMatP=  1 IDeriv=0 Min/MaxMlt=  0  4
 Nuclear    moments (au):
         89.00000000          0.00000000          0.00000000          0.00000000
       1415.65933848        475.94570692        178.88984570          0.00000000
          0.00000000          0.00000000       1468.43228013        365.19707049
        109.69477478       -632.22222621       -716.88700304      -1376.15015124
        154.71417872         33.13385693         -7.83368745        208.50906643
      44113.84764719       6677.03547433       1101.84402464       1410.43224335
      -2450.41684514       -280.64053490       -379.24912697        -48.59654740
        109.15630484       4804.14708650       3141.84165976        586.57742694
        440.09932430         93.90484737        -15.04868957
 Total      moments (au):
          1.00000000         -1.35478711          1.66888946          0.34211054
        -26.10258734        -40.96753245        -47.11877250          5.51451593
          4.62195854         -1.63606905         14.65258019         24.43702116
          3.76720765        -38.45878576          0.45769607        -39.97516148
          7.35502046          5.33253535          7.12125616          7.83402998
      -4018.36448655      -1498.22274701       -750.31741051         99.85452681
        160.49659312         92.77111704        -37.38382672         17.35193453
          9.54614047       -962.80035288       -883.07822401       -382.27151054
          4.87312962         47.16778464        -29.99258282
 Traceless Quadrup. (au):
         11.96037676         -2.90456835         -9.05580841          5.51451593
          4.62195854         -1.63606905
 Charge=              1.0000 electrons
 Dipole moment (field-independent basis, Debye):
    X=             -3.4435    Y=              4.2419    Z=              0.8696  Tot=              5.5324
 Quadrupole moment (field-independent basis, Debye-Ang):
   XX=            -35.1089   YY=            -55.1027   ZZ=            -63.3764
   XY=              7.4172   XZ=              6.2167   YZ=             -2.2006
 Traceless Quadrupole moment (field-independent basis, Debye-Ang):
   XX=             16.0871   YY=             -3.9067   ZZ=            -12.1804
   XY=              7.4172   XZ=              6.2167   YZ=             -2.2006
 Octapole moment (field-independent basis, Debye-Ang**2):
  XXX=             10.4291  YYY=             17.3933  ZZZ=              2.6814  XYY=            -27.3735
  XXY=              0.3258  XXZ=            -28.4528  XZZ=              5.2350  YZZ=              3.7955
  YYZ=              5.0686  XYZ=              5.5760
 Hexadecapole moment (field-independent basis, Debye-Ang**3):
 XXXX=          -1513.5087 YYYY=           -564.3025 ZZZZ=           -282.6055 XXXY=             37.6100
 XXXZ=             60.4507 YYYX=             34.9420 YYYZ=            -14.0805 ZZZX=              6.5356
 ZZZY=              3.5955 XXYY=           -362.6368 XXZZ=           -332.6096 YYZZ=           -143.9818
 XXYZ=              1.8355 YYXZ=             17.7656 ZZXY=            -11.2966
 N-N= 7.077538738604D+02 E-N=-2.643142603758D+03  KE= 5.306115901609D+02
 Entering OneElI...
 OneElI was handed    33357278 working-precision words.
 Calculate electrostatic properties
    NBasis =   206  MinDer = 0  MaxDer = 0
    NGrid  =    25  NMatD  =   1
 Requested accuracy = 0.1000D-12
 PrsmSu:  NPrtUS=   2 ThrOK=T IAlg=1 NPAlg=1 LenDen=           0.
 Prism:   IPart=     0 DynPar=F LinDyn=F Incr=         294.
 PRISM was handed    16541696 working-precision words and  2357 shell-pairs
 PRISM was handed    16541696 working-precision words and  2357 shell-pairs
 IPart=  1 NShTot=       29150 NBatch=        1166 AvBLen=        25.0
 IPart=  0 NShTot=       29775 NBatch=        1191 AvBLen=        25.0
 PrSmSu:  NxtVal=            589.
 --------------------------------------------------------
       Center         ----      EFG at Nuclei      ----
                      3XX-RR        3YY-RR        3ZZ-RR
 --------------------------------------------------------
     1   Atom        0.051884      0.236200     -0.288084
     2   Atom        0.048059      0.094684     -0.142744
     3   Atom        0.054557      0.099421     -0.153978
     4   Atom       -0.121684      0.338169     -0.216485
     5   Atom        0.064061      0.189713     -0.253774
     6   Atom        0.141756      0.145615     -0.287371
     7   Atom       -0.067995      0.039904      0.028091
     8   Atom        0.187061     -0.386289      0.199228
     9   Atom       -0.171010      0.200059     -0.029049
    10   Atom       -0.037348     -0.096279      0.133627
    11   Atom       -0.189208     -0.131268      0.320476
    12   Atom        0.466550     -0.542986      0.076436
    13   Atom        0.093147     -0.242350      0.149203
    14   Atom       -0.171184      0.121005      0.050179
    15   Atom        0.023512     -0.069947      0.046436
    16   Atom        0.057776     -0.104764      0.046989
    17   Atom       -0.095420      0.086981      0.008438
    18   Atom        0.142586      0.056271     -0.198858
    19   Atom        0.131375     -0.274861      0.143486
    20   Atom        0.152148      0.057311     -0.209459
    21   Atom       -0.243831      0.130762      0.113069
    22   Atom        0.002673      0.026819     -0.029492
    23   Atom        0.121812     -0.131890      0.010078
    24   Atom        0.107088     -0.099281     -0.007807
    25   Atom       -0.019490     -0.142235      0.161725
 --------------------------------------------------------
                        XY            XZ            YZ
 --------------------------------------------------------
     1   Atom        0.110130      0.357498     -0.156512
     2   Atom        0.045690      0.213701     -0.084799
     3   Atom        0.015562      0.215791     -0.104519
     4   Atom        0.043402      0.141895     -0.173239
     5   Atom        0.243232      0.227518     -0.001735
     6   Atom        0.253652     -0.357259      0.145276
     7   Atom       -0.025229      0.068816      0.031232
     8   Atom       -0.186441      0.002550      0.042549
     9   Atom       -0.087418      0.079004     -0.005466
    10   Atom       -0.026169     -0.194413      0.074755
    11   Atom       -0.359024      0.638694     -0.475556
    12   Atom       -0.683175     -1.073909      0.569780
    13   Atom       -0.143826      0.001225      0.019872
    14   Atom       -0.078459     -0.194663     -0.037819
    15   Atom        0.154166     -0.131898      0.153648
    16   Atom        0.135522     -0.108163      0.165760
    17   Atom        0.121929     -0.174781      0.097173
    18   Atom       -0.001321      0.006789     -0.183607
    19   Atom       -0.071331      0.019076      0.053570
    20   Atom        0.008442      0.031937     -0.159060
    21   Atom       -0.009521      0.126676      0.003135
    22   Atom        0.111701     -0.173892      0.141464
    23   Atom        0.053736      0.042541     -0.198124
    24   Atom        0.065934     -0.058710      0.197936
    25   Atom       -0.263921     -0.052579     -0.134595
 --------------------------------------------------------


 ---------------------------------------------------------------------------------
              Nuclear Quadrupole in Principal Axis System
 ---------------------------------------------------------------------------------

       Atom             a.u.   MegaHertz   Gauss  10(-4) cm-1        Axes

              Baa    -0.5599   -75.127   -26.807   -25.060 -0.5216  0.2335  0.8206
     1 C(13)  Bbb     0.2704    36.289    12.949    12.105 -0.5840  0.6035 -0.5429
              Bcc     0.2894    38.838    13.858    12.955  0.6220  0.7624  0.1784
 
              Baa    -0.3045   -40.857   -14.579   -13.628 -0.5260  0.2339  0.8177
     2 C(13)  Bbb     0.1169    15.693     5.600     5.235  0.2177  0.9664 -0.1365
              Bcc     0.1875    25.164     8.979     8.394  0.8222 -0.1062  0.5593
 
              Baa    -0.3123   -41.912   -14.955   -13.980 -0.5005  0.2307  0.8344
     3 C(13)  Bbb     0.1027    13.787     4.919     4.599  0.4766  0.8781  0.0431
              Bcc     0.2096    28.125    10.036     9.382  0.7227 -0.4192  0.5495
 
              Baa    -0.3589   -48.165   -17.186   -16.066 -0.5302  0.2354  0.8145
     4 C(13)  Bbb    -0.0289    -3.880    -1.385    -1.294  0.8478  0.1410  0.5112
              Bcc     0.3878    52.045    18.571    17.360  0.0055  0.9616 -0.2744
 
              Baa    -0.3979   -53.400   -19.055   -17.812 -0.5212  0.2182  0.8251
     5 C(13)  Bbb    -0.0118    -1.578    -0.563    -0.526 -0.5473  0.6563 -0.5193
              Bcc     0.4097    54.978    19.618    18.339  0.6548  0.7222  0.2227
 
              Baa    -0.5797   -77.784   -27.755   -25.946  0.5103 -0.3370  0.7912
     6 C(13)  Bbb     0.1381    18.534     6.613     6.182 -0.3340  0.7702  0.5434
              Bcc     0.4415    59.251    21.142    19.764  0.7925  0.5416 -0.2805
 
              Baa    -0.1128   -15.142    -5.403    -5.051  0.8514  0.2364 -0.4682
     7 C(13)  Bbb     0.0391     5.243     1.871     1.749 -0.4322  0.8219 -0.3711
              Bcc     0.0738     9.899     3.532     3.302  0.2970  0.5183  0.8019
 
              Baa    -0.4443   -59.616   -21.272   -19.886  0.2829  0.9570 -0.0644
     8 C(13)  Bbb     0.1997    26.802     9.564     8.940  0.2293 -0.0023  0.9734
              Bcc     0.2445    32.814    11.709    10.946  0.9314 -0.2901 -0.2200
 
              Baa    -0.2208   -29.629   -10.572    -9.883  0.9106  0.1843 -0.3699
     9 C(13)  Bbb    -0.0010    -0.131    -0.047    -0.044  0.3404  0.1731  0.9242
              Bcc     0.2218    29.760    10.619     9.927 -0.2344  0.9675 -0.0949
 
              Baa    -0.1702    -6.564    -2.342    -2.190  0.7684 -0.2998  0.5654
    10 N(14)  Bbb    -0.1062    -4.097    -1.462    -1.367  0.3618  0.9323  0.0027
              Bcc     0.2764    10.661     3.804     3.556 -0.5279  0.2025  0.8248
 
              Baa    -0.6259   -24.140    -8.614    -8.052  0.8506  0.1267 -0.5104
    11 N(14)  Bbb    -0.4266   -16.455    -5.872    -5.489  0.1362  0.8844  0.4465
              Bcc     1.0526    40.595    14.485    13.541  0.5079 -0.4493  0.7350
 
              Baa    -0.8937    64.666    23.074    21.570  0.2846  0.9303 -0.2314
    12 O(17)  Bbb    -0.8200    59.334    21.172    19.792  0.6394 -0.0044  0.7688
              Bcc     1.7137  -123.999   -44.246   -41.362  0.7142 -0.3667 -0.5961
 
              Baa    -0.2964  -158.135   -56.427   -52.748  0.3462  0.9372 -0.0427
    13 H(1)   Bbb     0.1422    75.853    27.066    25.302  0.7660 -0.2560  0.5897
              Bcc     0.1542    82.283    29.361    27.447 -0.5417  0.2369  0.8065
 
              Baa    -0.3023  -161.267   -57.544   -53.793  0.8482  0.2010  0.4901
    14 H(1)   Bbb     0.1371    73.176    26.111    24.409 -0.0461  0.9497 -0.3097
              Bcc     0.1651    88.090    31.433    29.384 -0.5277  0.2401  0.8148
 
              Baa    -0.3017  -160.956   -57.433   -53.689 -0.5283  0.6845 -0.5023
    15 H(1)   Bbb     0.1330    70.937    25.312    23.662  0.6241  0.7142  0.3170
              Bcc     0.1687    90.019    32.121    30.027 -0.5757  0.1460  0.8045
 
              Baa    -0.2956  -157.693   -56.269   -52.601 -0.4393  0.7464 -0.4999
    16 H(1)   Bbb     0.1308    69.775    24.897    23.274  0.7308  0.6206  0.2844
              Bcc     0.1648    87.918    31.371    29.326 -0.5225  0.2404  0.8181
 
              Baa    -0.2902  -154.845   -55.252   -51.651  0.7381 -0.3819  0.5562
    17 H(1)   Bbb     0.1373    73.280    26.148    24.444 -0.6667 -0.2862  0.6882
              Bcc     0.1529    81.564    29.104    27.207  0.1036  0.8788  0.4658
 
              Baa    -0.2949  -157.361   -56.150   -52.490 -0.0124  0.4632  0.8862
    18 H(1)   Bbb     0.1410    75.232    26.844    25.095  0.9339  0.3221 -0.1554
              Bcc     0.1539    82.130    29.306    27.396 -0.3574  0.8256 -0.4366
 
              Baa    -0.2942  -156.968   -56.010   -52.359  0.1695  0.9773 -0.1270
    19 H(1)   Bbb     0.1367    72.960    26.034    24.337  0.7954 -0.2118 -0.5679
              Bcc     0.1574    84.008    29.976    28.022  0.5819  0.0048  0.8132
 
              Baa    -0.2861  -152.634   -54.464   -50.913 -0.0740  0.4207  0.9042
    20 H(1)   Bbb     0.1301    69.425    24.773    23.158  0.2315  0.8892 -0.3947
              Bcc     0.1560    83.209    29.691    27.756  0.9700 -0.1801  0.1632
 
              Baa    -0.2845  -151.776   -54.158   -50.627  0.9525  0.0241 -0.3037
    21 H(1)   Bbb     0.1310    69.897    24.941    23.315 -0.0243  0.9997  0.0033
              Bcc     0.1535    81.879    29.216    27.312  0.3037  0.0042  0.9528
 
              Baa    -0.2901  -154.808   -55.239   -51.638  0.5755 -0.4938  0.6519
    22 H(1)   Bbb     0.1254    66.907    23.874    22.318  0.5386  0.8287  0.1522
              Bcc     0.1647    87.902    31.365    29.321 -0.6154  0.2635  0.7429
 
              Baa    -0.2829  -150.959   -53.866   -50.355 -0.1667  0.8054  0.5688
    23 H(1)   Bbb     0.1325    70.713    25.232    23.587  0.9623  0.2587 -0.0843
              Bcc     0.1504    80.246    28.634    26.767  0.2151 -0.5333  0.8181
 
              Baa    -0.2769  -147.758   -52.724   -49.287 -0.2238  0.7612 -0.6087
    24 H(1)   Bbb     0.1263    67.408    24.053    22.485  0.9546  0.2973  0.0209
              Bcc     0.1506    80.350    28.671    26.802 -0.1969  0.5763  0.7931
 
              Baa    -0.3868  -206.376   -73.640   -68.839  0.5886  0.7703  0.2454
    25 H(1)   Bbb     0.1520    81.124    28.947    27.060  0.6859 -0.3151 -0.6560
              Bcc     0.2347   125.251    44.693    41.779  0.4279 -0.5544  0.7138
 

 ---------------------------------------------------------------------------------

 No NMR shielding tensors so no spin-rotation constants.
 Leave Link  601 at Sat Feb 17 21:02:29 2018, MaxMem=   33554432 cpu:       0.5
 Merz-Kollman atomic radii used.
 Read replacement radii for each type of atom:
 Atom Element Radius
    1     6    1.50
    2     6    1.50
    3     6    1.50
    4     6    1.50
    5     6    1.50
    6     6    1.50
    7     6    1.50
    8     6    1.50
    9     6    1.50
   10     7    1.50
   11     7    1.50
   12     8    1.40
   13     1    1.20
   14     1    1.20
   15     1    1.20
   16     1    1.20
   17     1    1.20
   18     1    1.20
   19     1    1.20
   20     1    1.20
   21     1    1.20
   22     1    1.20
   23     1    1.20
   24     1    1.20
   25     1    1.20
 Generate VDW surfaces: Layer= 4 Dens= 1 Start= 1.400 Inc= 0.200

 **********************************************************************

            Electrostatic Properties Using The SCF Density

 **********************************************************************

       Atomic Center    1 is at  -2.275245 -1.656445  0.037126
       Atomic Center    2 is at  -2.961464 -0.677976 -0.686344
       Atomic Center    3 is at  -1.094656 -1.314654  0.687344
       Atomic Center    4 is at  -2.446146  0.600895 -0.726530
       Atomic Center    5 is at  -0.599951 -0.013606  0.634919
       Atomic Center    6 is at   2.338247 -0.389701 -0.250073
       Atomic Center    7 is at   3.658533 -0.114069 -0.933596
       Atomic Center    8 is at  -0.820724  2.325452 -0.142754
       Atomic Center    9 is at   0.676594  0.370235  1.364320
       Atomic Center   10 is at  -1.296071  0.922019 -0.075120
       Atomic Center   11 is at   1.782481  0.667756  0.461111
       Atomic Center   12 is at   1.755547 -1.462312 -0.295792
       Atomic Center   13 is at  -2.649848 -2.673966  0.082817
       Atomic Center   14 is at  -3.880632 -0.896838 -1.217575
       Atomic Center   15 is at  -0.516461 -2.057777  1.222087
       Atomic Center   16 is at  -2.926451  1.405283 -1.269264
       Atomic Center   17 is at   4.468582 -0.536160 -0.327420
       Atomic Center   18 is at   3.670284 -0.625341 -1.898593
       Atomic Center   19 is at   3.852332  0.952223 -1.081074
       Atomic Center   20 is at  -0.907822  2.789488  0.842746
       Atomic Center   21 is at   0.217169  2.334040 -0.474487
       Atomic Center   22 is at  -1.440805  2.871592 -0.851685
       Atomic Center   23 is at   0.501777  1.249347  1.992151
       Atomic Center   24 is at   0.927165 -0.465407  2.026081
       Atomic Center   25 is at   2.384338  1.442801  0.712143
      ESP Fit Center   26 is at  -2.800245 -0.747119  1.855780
      ESP Fit Center   27 is at  -3.325245 -1.656445  1.855780
      ESP Fit Center   28 is at  -2.800245 -2.565772  1.855780
      ESP Fit Center   29 is at  -4.020230 -1.144071  1.087126
      ESP Fit Center   30 is at  -4.020230 -2.168819  1.087126
      ESP Fit Center   31 is at  -4.314223 -2.159008  0.037126
      ESP Fit Center   32 is at  -1.082309 -3.384711  0.037126
      ESP Fit Center   33 is at  -1.519749 -3.310751 -1.012874
      ESP Fit Center   34 is at  -0.745297 -2.639684 -1.012874
      ESP Fit Center   35 is at  -1.225245 -1.656445 -1.781527
      ESP Fit Center   36 is at  -2.800245 -2.565772 -1.781527
      ESP Fit Center   37 is at  -1.750245 -2.565772 -1.781527
      ESP Fit Center   38 is at  -3.486464  0.231350  1.132310
      ESP Fit Center   39 is at  -4.011464 -0.677976  1.132310
      ESP Fit Center   40 is at  -4.706449 -0.165602  0.363656
      ESP Fit Center   41 is at  -4.706449 -1.190350  0.363656
      ESP Fit Center   42 is at  -3.220286 -2.478118 -1.736344
      ESP Fit Center   43 is at  -1.911464 -0.677976 -2.504997
      ESP Fit Center   44 is at  -2.436464 -1.587303 -2.504997
      ESP Fit Center   45 is at  -2.961464 -0.677976 -2.786344
      ESP Fit Center   46 is at  -1.094656 -1.314654  2.787344
      ESP Fit Center   47 is at  -1.619656 -0.405327  2.505997
      ESP Fit Center   48 is at  -2.144656 -1.314654  2.505997
      ESP Fit Center   49 is at  -1.619656 -2.223980  2.505997
      ESP Fit Center   50 is at  -0.339160 -2.968959 -0.362656
      ESP Fit Center   51 is at  -0.044656 -1.314654 -1.131309
      ESP Fit Center   52 is at  -0.569656 -2.223980 -1.131309
      ESP Fit Center   53 is at  -2.971146  1.510222  1.092123
      ESP Fit Center   54 is at  -3.496146  0.600895  1.092123
      ESP Fit Center   55 is at  -3.637111  1.975342  0.323470
      ESP Fit Center   56 is at  -4.191131  1.113269  0.323470
      ESP Fit Center   57 is at  -0.916198 -0.382343 -1.776530
      ESP Fit Center   58 is at  -1.396146  0.600895 -2.545183
      ESP Fit Center   59 is at  -1.921146 -0.308431 -2.545183
      ESP Fit Center   60 is at  -2.446146  0.600895 -2.826530
      ESP Fit Center   61 is at  -1.124951  0.895721  2.453572
      ESP Fit Center   62 is at  -1.649951 -0.013606  2.453572
      ESP Fit Center   63 is at   0.450049 -0.013606 -1.183735
      ESP Fit Center   64 is at  -0.074951 -0.922932 -1.183735
      ESP Fit Center   65 is at   3.388247 -0.389701  1.568580
      ESP Fit Center   66 is at   2.863247 -1.299028  1.568580
      ESP Fit Center   67 is at   0.593262  0.122672 -1.300073
      ESP Fit Center   68 is at   1.813247  0.519625 -2.068727
      ESP Fit Center   69 is at   1.288247 -0.389701 -2.068727
      ESP Fit Center   70 is at   4.183533  0.795258  0.885057
      ESP Fit Center   71 is at   3.911660 -2.198757 -0.933596
      ESP Fit Center   72 is at   5.477186 -0.114069 -1.983596
      ESP Fit Center   73 is at   2.467568  1.260378 -1.983596
      ESP Fit Center   74 is at   4.183533  0.795258 -2.752249
      ESP Fit Center   75 is at   3.133533  0.795258 -2.752249
      ESP Fit Center   76 is at   0.709225  3.308690  0.907246
      ESP Fit Center   77 is at   0.372212  4.053718 -0.142754
      ESP Fit Center   78 is at  -0.567597  4.410141 -0.142754
      ESP Fit Center   79 is at  -0.065228  3.979757 -1.192754
      ESP Fit Center   80 is at  -0.295724  1.416125 -1.961407
      ESP Fit Center   81 is at   0.676594  0.370235  3.464320
      ESP Fit Center   82 is at  -0.373406  0.370235  3.182974
      ESP Fit Center   83 is at   2.495247  0.370235  2.414320
      ESP Fit Center   84 is at   2.206543  1.353473  2.414320
      ESP Fit Center   85 is at  -2.346071  0.922019  1.743534
      ESP Fit Center   86 is at  -0.246071  0.922019 -1.893773
      ESP Fit Center   87 is at  -0.771071  0.012692 -1.893773
      ESP Fit Center   88 is at   2.832481  0.667756  2.279764
      ESP Fit Center   89 is at   2.307481  1.577083 -1.357543
      ESP Fit Center   90 is at   0.732481  0.667756 -1.357543
      ESP Fit Center   91 is at   1.265547 -2.311017  1.401617
      ESP Fit Center   92 is at   2.245547 -2.311017  1.401617
      ESP Fit Center   93 is at   1.231019 -3.076645  0.684208
      ESP Fit Center   94 is at   2.280075 -3.076645  0.684208
      ESP Fit Center   95 is at   3.128780 -2.460024  0.684208
      ESP Fit Center   96 is at   0.775547 -3.159722 -0.295792
      ESP Fit Center   97 is at   1.755547 -3.422312 -0.295792
      ESP Fit Center   98 is at   2.735547 -3.159722 -0.295792
      ESP Fit Center   99 is at   3.452957 -2.442312 -0.295792
      ESP Fit Center  100 is at   0.382314 -0.464599 -1.275792
      ESP Fit Center  101 is at   0.058137 -1.462312 -1.275792
      ESP Fit Center  102 is at   0.382314 -2.460024 -1.275792
      ESP Fit Center  103 is at   1.231019 -3.076645 -1.275792
      ESP Fit Center  104 is at   2.280075 -3.076645 -1.275792
      ESP Fit Center  105 is at   3.128780 -2.460024 -1.275792
      ESP Fit Center  106 is at   0.775547 -1.462312 -1.993202
      ESP Fit Center  107 is at   1.265547 -2.311017 -1.993202
      ESP Fit Center  108 is at   2.245547 -2.311017 -1.993202
      ESP Fit Center  109 is at   1.755547 -1.462312 -2.255792
      ESP Fit Center  110 is at  -3.448735 -3.254392  1.441966
      ESP Fit Center  111 is at  -2.344700 -3.613115  1.441966
      ESP Fit Center  112 is at  -4.151265 -3.220437  0.601966
      ESP Fit Center  113 is at  -3.448735 -4.057680  0.601966
      ESP Fit Center  114 is at  -2.372397 -4.247467  0.601966
      ESP Fit Center  115 is at  -1.425881 -3.700996  0.601966
      ESP Fit Center  116 is at  -4.151265 -3.220437 -0.436331
      ESP Fit Center  117 is at  -3.448735 -4.057680 -0.436331
      ESP Fit Center  118 is at  -2.372397 -4.247467 -0.436331
      ESP Fit Center  119 is at  -1.425881 -3.700996 -0.436331
      ESP Fit Center  120 is at  -3.448735 -3.254392 -1.276331
      ESP Fit Center  121 is at  -2.344700 -3.613115 -1.276331
      ESP Fit Center  122 is at  -5.382049 -0.350366 -0.698427
      ESP Fit Center  123 is at  -5.382049 -1.443309 -0.698427
      ESP Fit Center  124 is at  -4.679519 -2.280551 -0.698427
      ESP Fit Center  125 is at  -4.679519  0.486876 -1.736724
      ESP Fit Center  126 is at  -5.382049 -0.350366 -1.736724
      ESP Fit Center  127 is at  -5.382049 -1.443309 -1.736724
      ESP Fit Center  128 is at  -4.679519 -2.280551 -1.736724
      ESP Fit Center  129 is at  -3.603181 -2.470339 -1.736724
      ESP Fit Center  130 is at  -3.575484  0.042311 -2.576724
      ESP Fit Center  131 is at  -4.679519 -0.316412 -2.576724
      ESP Fit Center  132 is at  -4.679519 -1.477263 -2.576724
      ESP Fit Center  133 is at  -3.575484 -1.835986 -2.576724
      ESP Fit Center  134 is at  -3.880632 -0.896838 -2.897575
      ESP Fit Center  135 is at  -0.516461 -2.057777  2.902087
      ESP Fit Center  136 is at   0.471019 -2.057777  2.581235
      ESP Fit Center  137 is at  -1.315348 -2.638203  2.581235
      ESP Fit Center  138 is at  -0.211313 -2.996926  2.581235
      ESP Fit Center  139 is at  -1.315348 -3.441491  1.741235
      ESP Fit Center  140 is at  -0.239010 -3.631278  1.741235
      ESP Fit Center  141 is at   0.707506 -3.084807  1.741235
      ESP Fit Center  142 is at  -0.239010 -3.631278  0.702938
      ESP Fit Center  143 is at   0.707506 -3.084807  0.702938
      ESP Fit Center  144 is at  -3.725338  2.788996 -0.750116
      ESP Fit Center  145 is at  -4.427868  1.951754 -0.750116
      ESP Fit Center  146 is at  -3.725338  2.788996 -1.788413
      ESP Fit Center  147 is at  -4.427868  1.951754 -1.788413
      ESP Fit Center  148 is at  -4.427868  0.858811 -1.788413
      ESP Fit Center  149 is at  -1.938971  1.405283 -2.628413
      ESP Fit Center  150 is at  -2.621303  2.344431 -2.628413
      ESP Fit Center  151 is at  -3.725338  1.985708 -2.628413
      ESP Fit Center  152 is at  -3.725338  0.824857 -2.628413
      ESP Fit Center  153 is at  -2.926451  1.405283 -2.949264
      ESP Fit Center  154 is at   4.468582 -0.536160  1.352580
      ESP Fit Center  155 is at   5.456061 -0.536160  1.031729
      ESP Fit Center  156 is at   4.773729  0.402988  1.031729
      ESP Fit Center  157 is at   4.773729 -1.475309  1.031729
      ESP Fit Center  158 is at   6.066357 -0.536160  0.191729
      ESP Fit Center  159 is at   5.692548  0.490870  0.191729
      ESP Fit Center  160 is at   4.746032 -2.109661  0.191729
      ESP Fit Center  161 is at   5.692548 -1.563190  0.191729
      ESP Fit Center  162 is at   6.066357 -0.536160 -0.846569
      ESP Fit Center  163 is at   5.692548  0.490870 -0.846569
      ESP Fit Center  164 is at   4.746032 -2.109661 -0.846569
      ESP Fit Center  165 is at   5.692548 -1.563190 -0.846569
      ESP Fit Center  166 is at   3.947734 -2.198842 -1.379445
      ESP Fit Center  167 is at   5.268059 -0.625341 -2.417742
      ESP Fit Center  168 is at   2.168866 -0.078870 -2.417742
      ESP Fit Center  169 is at   2.168866 -1.171812 -2.417742
      ESP Fit Center  170 is at   2.871396 -2.009055 -2.417742
      ESP Fit Center  171 is at   3.947734 -2.198842 -2.417742
      ESP Fit Center  172 is at   4.894250 -1.652371 -2.417742
      ESP Fit Center  173 is at   4.657763 -0.625341 -3.257742
      ESP Fit Center  174 is at   3.975432  0.313807 -3.257742
      ESP Fit Center  175 is at   2.871396 -0.044915 -3.257742
      ESP Fit Center  176 is at   2.871396 -1.205767 -3.257742
      ESP Fit Center  177 is at   3.975432 -1.564490 -3.257742
      ESP Fit Center  178 is at   3.670284 -0.625341 -3.578593
      ESP Fit Center  179 is at   4.157480  1.891371  0.278075
      ESP Fit Center  180 is at   5.450107  0.952223 -0.561925
      ESP Fit Center  181 is at   5.076298  1.979253 -0.561925
      ESP Fit Center  182 is at   4.129783  2.525724 -0.561925
      ESP Fit Center  183 is at   3.053444  2.335936 -0.561925
      ESP Fit Center  184 is at   5.450107  0.952223 -1.600222
      ESP Fit Center  185 is at   5.076298  1.979253 -1.600222
      ESP Fit Center  186 is at   4.129783  2.525724 -1.600222
      ESP Fit Center  187 is at   3.053444  2.335936 -1.600222
      ESP Fit Center  188 is at   2.350915  1.498694 -1.600222
      ESP Fit Center  189 is at   4.839811  0.952223 -2.440222
      ESP Fit Center  190 is at   4.157480  1.891371 -2.440222
      ESP Fit Center  191 is at   3.053444  1.532649 -2.440222
      ESP Fit Center  192 is at   3.852332  0.952223 -2.761074
      ESP Fit Center  193 is at  -0.907822  2.789488  2.522746
      ESP Fit Center  194 is at  -0.602674  3.728637  2.201894
      ESP Fit Center  195 is at  -1.706709  3.369914  2.201894
      ESP Fit Center  196 is at  -1.706709  2.209063  2.201894
      ESP Fit Center  197 is at   0.316145  3.816518  1.361894
      ESP Fit Center  198 is at  -0.630371  4.362989  1.361894
      ESP Fit Center  199 is at  -1.706709  4.173202  1.361894
      ESP Fit Center  200 is at  -2.409239  3.335960  1.361894
      ESP Fit Center  201 is at  -2.409239  2.243017  1.361894
      ESP Fit Center  202 is at  -1.706709  4.173202  0.323597
      ESP Fit Center  203 is at   1.441136  3.361070  0.044662
      ESP Fit Center  204 is at   1.814944  2.334040 -0.993635
      ESP Fit Center  205 is at   1.441136  3.361070 -0.993635
      ESP Fit Center  206 is at   0.494620  3.907541 -0.993635
      ESP Fit Center  207 is at   1.204648  2.334040 -1.833635
      ESP Fit Center  208 is at   0.522317  3.273189 -1.833635
      ESP Fit Center  209 is at   0.522317  1.394891 -1.833635
      ESP Fit Center  210 is at   0.217169  2.334040 -2.154487
      ESP Fit Center  211 is at  -1.163355  4.445094 -0.332536
      ESP Fit Center  212 is at  -2.239693  4.255306 -0.332536
      ESP Fit Center  213 is at  -2.942223  3.418064 -0.332536
      ESP Fit Center  214 is at  -1.163355  4.445094 -1.370833
      ESP Fit Center  215 is at  -2.239693  4.255306 -1.370833
      ESP Fit Center  216 is at  -2.942223  3.418064 -1.370833
      ESP Fit Center  217 is at  -0.453326  2.871592 -2.210833
      ESP Fit Center  218 is at  -1.135657  3.810741 -2.210833
      ESP Fit Center  219 is at  -2.239693  3.452018 -2.210833
      ESP Fit Center  220 is at  -1.135657  1.932444 -2.210833
      ESP Fit Center  221 is at  -1.440805  2.871592 -2.531685
      ESP Fit Center  222 is at   0.501777  1.249347  3.672151
      ESP Fit Center  223 is at   1.489256  1.249347  3.351300
      ESP Fit Center  224 is at   0.806925  2.188496  3.351300
      ESP Fit Center  225 is at  -0.297111  1.829773  3.351300
      ESP Fit Center  226 is at  -0.297111  0.668922  3.351300
      ESP Fit Center  227 is at   1.725743  2.276377  2.511300
      ESP Fit Center  228 is at   0.779227  2.822848  2.511300
      ESP Fit Center  229 is at  -0.297111  2.633061  2.511300
      ESP Fit Center  230 is at  -0.999641  1.795818  2.511300
      ESP Fit Center  231 is at   0.779227  2.822848  1.473002
      ESP Fit Center  232 is at   0.927165 -0.465407  3.706081
      ESP Fit Center  233 is at   1.914644 -0.465407  3.385229
      ESP Fit Center  234 is at   0.128277  0.115019  3.385229
      ESP Fit Center  235 is at   0.128277 -1.045833  3.385229
      ESP Fit Center  236 is at   1.232312 -1.404556  3.385229
      ESP Fit Center  237 is at   2.524940 -0.465407  2.545229
      ESP Fit Center  238 is at   1.204615 -2.038908  2.545229
      ESP Fit Center  239 is at   2.151131 -1.492437  2.545229
      ESP Fit Center  240 is at   1.204615 -2.038908  1.506932
      ESP Fit Center  241 is at   2.384338  1.442801  2.392143
      ESP Fit Center  242 is at   3.371817  1.442801  2.071292
      ESP Fit Center  243 is at   2.689486  2.381950  2.071292
      ESP Fit Center  244 is at   3.982113  1.442801  1.231292
      ESP Fit Center  245 is at   3.608304  2.469831  1.231292
      ESP Fit Center  246 is at   2.661788  3.016303  1.231292
      ESP Fit Center  247 is at   1.585450  2.826515  1.231292
      ESP Fit Center  248 is at   3.608304  2.469831  0.192995
      ESP Fit Center  249 is at   2.661788  3.016303  0.192995
      ESP Fit Center  250 is at   2.689486  2.381950 -0.647005
      ESP Fit Center  251 is at  -3.316566 -1.656445  2.199451
      ESP Fit Center  252 is at  -2.795906 -2.558256  2.199451
      ESP Fit Center  253 is at  -4.075634 -1.127804  1.533502
      ESP Fit Center  254 is at  -4.075634 -2.185087  1.533502
      ESP Fit Center  255 is at  -0.816387 -3.485796 -0.496924
      ESP Fit Center  256 is at  -1.495762 -3.363275 -1.459249
      ESP Fit Center  257 is at  -0.696721 -2.670901 -1.459249
      ESP Fit Center  258 is at  -1.233924 -1.656445 -2.125199
      ESP Fit Center  259 is at  -1.754585 -2.558256 -2.125199
      ESP Fit Center  260 is at  -3.482125  0.223834  1.475982
      ESP Fit Center  261 is at  -4.002785 -0.677976  1.475982
      ESP Fit Center  262 is at  -4.761853 -0.149335  0.810032
      ESP Fit Center  263 is at  -4.761853 -1.206618  0.810032
      ESP Fit Center  264 is at  -5.069576  0.337237 -0.152293
      ESP Fit Center  265 is at  -3.228503 -2.535273 -2.182719
      ESP Fit Center  266 is at  -1.920143 -0.677976 -2.848669
      ESP Fit Center  267 is at  -2.440804 -1.579787 -2.848669
      ESP Fit Center  268 is at  -2.961464 -0.677976 -3.086344
      ESP Fit Center  269 is at  -1.094656 -1.314654  3.087344
      ESP Fit Center  270 is at  -1.615316 -0.412843  2.849669
      ESP Fit Center  271 is at  -2.135977 -1.314654  2.849669
      ESP Fit Center  272 is at  -1.615316 -2.216464  2.849669
      ESP Fit Center  273 is at  -2.323434 -2.732739  2.183720
      ESP Fit Center  274 is at  -0.315173 -3.021483 -0.809032
      ESP Fit Center  275 is at  -3.487467  0.600895  1.435795
      ESP Fit Center  276 is at  -3.674924  2.018980  0.769846
      ESP Fit Center  277 is at  -4.246535  1.129537  0.769846
      ESP Fit Center  278 is at  -4.554258  1.616108 -0.192480
      ESP Fit Center  279 is at  -0.867622 -0.413561 -2.222906
      ESP Fit Center  280 is at  -1.404825  0.600895 -2.888855
      ESP Fit Center  281 is at  -1.925486 -0.300915 -2.888855
      ESP Fit Center  282 is at  -2.446146  0.600895 -3.126530
      ESP Fit Center  283 is at  -1.641272 -0.013606  2.797244
      ESP Fit Center  284 is at  -2.400340  0.515036  2.131294
      ESP Fit Center  285 is at  -0.079291 -0.915416 -1.527407
      ESP Fit Center  286 is at   3.379568 -0.389701  1.912252
      ESP Fit Center  287 is at   2.858908 -1.291512  1.912252
      ESP Fit Center  288 is at   0.537859  0.138940 -1.746449
      ESP Fit Center  289 is at   1.817587  0.512109 -2.412398
      ESP Fit Center  290 is at   1.296927 -0.389701 -2.412398
      ESP Fit Center  291 is at   4.179193  0.787742  1.228729
      ESP Fit Center  292 is at   5.766644  0.901144 -0.399546
      ESP Fit Center  293 is at   5.998360 -0.114069 -1.467646
      ESP Fit Center  294 is at   5.766644  0.901144 -1.467646
      ESP Fit Center  295 is at   5.117391 -1.943419 -1.467646
      ESP Fit Center  296 is at   5.534929 -0.114069 -2.429971
      ESP Fit Center  297 is at   5.237057  0.900387 -2.429971
      ESP Fit Center  298 is at   2.429755  1.304016 -2.429971
      ESP Fit Center  299 is at   4.179193  0.787742 -3.095921
      ESP Fit Center  300 is at   3.137873  0.787742 -3.095921
      ESP Fit Center  301 is at   0.638134  4.154802  0.391296
      ESP Fit Center  302 is at  -0.300064  4.606615  0.391296
      ESP Fit Center  303 is at  -1.341385  4.606615  0.391296
      ESP Fit Center  304 is at  -2.279582  4.154802  0.391296
      ESP Fit Center  305 is at  -2.928835  3.340665  0.391296
      ESP Fit Center  306 is at  -0.300064  4.606615 -0.676804
      ESP Fit Center  307 is at  -0.041241  4.032281 -1.639130
      ESP Fit Center  308 is at  -0.300064  1.423642 -2.305079
      ESP Fit Center  309 is at   0.676594  0.370235  3.764320
      ESP Fit Center  310 is at  -0.364727  0.370235  3.526646
      ESP Fit Center  311 is at   2.552990  0.370235  2.860696
      ESP Fit Center  312 is at   2.255118  1.384691  2.860696
      ESP Fit Center  313 is at  -2.337392  0.922019  2.087206
      ESP Fit Center  314 is at  -0.254750  0.922019 -2.237445
      ESP Fit Center  315 is at   2.823802  0.667756  2.623436
      ESP Fit Center  316 is at   3.658877  0.667756  1.957486
      ESP Fit Center  317 is at   3.361006 -0.346700  1.957486
      ESP Fit Center  318 is at   2.561964  2.374586 -1.035265
      ESP Fit Center  319 is at   0.741160  0.667756 -1.701215
      ESP Fit Center  320 is at   2.241497 -2.304002  1.722378
      ESP Fit Center  321 is at   1.214365 -3.127900  1.100825
      ESP Fit Center  322 is at   2.296729 -3.127900  1.100825
      ESP Fit Center  323 is at   3.172381 -2.491702  1.100825
      ESP Fit Center  324 is at   0.981147 -3.504236  0.202655
      ESP Fit Center  325 is at   2.018780 -3.630228  0.202655
      ESP Fit Center  326 is at   2.996109 -3.259576  0.202655
      ESP Fit Center  327 is at   3.689240 -2.477192  0.202655
      ESP Fit Center  328 is at   0.120920 -2.910465 -0.794239
      ESP Fit Center  329 is at   0.981147 -3.504236 -0.794239
      ESP Fit Center  330 is at   2.018780 -3.630228 -0.794239
      ESP Fit Center  331 is at   2.996109 -3.259576 -0.794239
      ESP Fit Center  332 is at   0.338714 -0.432922 -1.692409
      ESP Fit Center  333 is at   0.004245 -1.462312 -1.692409
      ESP Fit Center  334 is at   0.338714 -2.491702 -1.692409
      ESP Fit Center  335 is at   1.214365 -3.127900 -1.692409
      ESP Fit Center  336 is at   2.296729 -3.127900 -1.692409
      ESP Fit Center  337 is at   3.172381 -2.491702 -1.692409
      ESP Fit Center  338 is at   0.783647 -1.462312 -2.313963
      ESP Fit Center  339 is at   1.269597 -2.304002 -2.313963
      ESP Fit Center  340 is at   2.241497 -2.304002 -2.313963
      ESP Fit Center  341 is at   1.755547 -1.462312 -2.535792
      ESP Fit Center  342 is at  -3.129848 -3.505351  1.745586
      ESP Fit Center  343 is at  -2.169848 -3.505351  1.745586
      ESP Fit Center  344 is at  -4.312617 -2.673966  1.042817
      ESP Fit Center  345 is at  -3.995056 -3.651317  1.042817
      ESP Fit Center  346 is at  -3.163672 -4.255353  1.042817
      ESP Fit Center  347 is at  -2.136024 -4.255353  1.042817
      ESP Fit Center  348 is at  -4.569848 -2.673966  0.082817
      ESP Fit Center  349 is at  -4.312617 -3.633966  0.082817
      ESP Fit Center  350 is at  -3.609848 -4.336735  0.082817
      ESP Fit Center  351 is at  -2.649848 -4.593966  0.082817
      ESP Fit Center  352 is at  -1.689848 -4.336735  0.082817
      ESP Fit Center  353 is at  -3.995056 -3.651317 -0.877183
      ESP Fit Center  354 is at  -3.163672 -4.255353 -0.877183
      ESP Fit Center  355 is at  -2.136024 -4.255353 -0.877183
      ESP Fit Center  356 is at  -3.129848 -3.505351 -1.579952
      ESP Fit Center  357 is at  -2.169848 -3.505351 -1.579952
      ESP Fit Center  358 is at  -5.225840  0.080513 -0.257575
      ESP Fit Center  359 is at  -5.543400 -0.896838 -0.257575
      ESP Fit Center  360 is at  -5.225840 -1.874188 -0.257575
      ESP Fit Center  361 is at  -4.840632  0.765931 -1.217575
      ESP Fit Center  362 is at  -5.543400  0.063162 -1.217575
      ESP Fit Center  363 is at  -5.800632 -0.896838 -1.217575
      ESP Fit Center  364 is at  -5.543400 -1.856838 -1.217575
      ESP Fit Center  365 is at  -4.840632 -2.559606 -1.217575
      ESP Fit Center  366 is at  -5.225840  0.080513 -2.177575
      ESP Fit Center  367 is at  -5.543400 -0.896838 -2.177575
      ESP Fit Center  368 is at  -5.225840 -1.874188 -2.177575
      ESP Fit Center  369 is at  -4.394455 -2.478225 -2.177575
      ESP Fit Center  370 is at  -4.360632 -0.065453 -2.880344
      ESP Fit Center  371 is at  -4.840632 -0.896838 -2.880344
      ESP Fit Center  372 is at  -4.360632 -1.728222 -2.880344
      ESP Fit Center  373 is at  -3.400632 -1.728222 -2.880344
      ESP Fit Center  374 is at  -3.880632 -0.896838 -3.137575
      ESP Fit Center  375 is at  -0.516461 -2.057777  3.142087
      ESP Fit Center  376 is at  -0.996461 -2.889162  2.884856
      ESP Fit Center  377 is at  -0.036461 -2.889162  2.884856
      ESP Fit Center  378 is at  -1.861669 -3.035128  2.182087
      ESP Fit Center  379 is at  -1.030284 -3.639164  2.182087
      ESP Fit Center  380 is at  -0.002637 -3.639164  2.182087
      ESP Fit Center  381 is at   0.828748 -3.035128  2.182087
      ESP Fit Center  382 is at  -1.476461 -3.720546  1.222087
      ESP Fit Center  383 is at  -0.516461 -3.977777  1.222087
      ESP Fit Center  384 is at   0.443539 -3.720546  1.222087
      ESP Fit Center  385 is at   1.146308 -3.017777  1.222087
      ESP Fit Center  386 is at  -0.002637 -3.639164  0.262087
      ESP Fit Center  387 is at  -3.440274  2.986670 -0.309264
      ESP Fit Center  388 is at  -4.271659  2.382634 -0.309264
      ESP Fit Center  389 is at  -3.886451  3.068051 -1.269264
      ESP Fit Center  390 is at  -4.589219  2.365283 -1.269264
      ESP Fit Center  391 is at  -4.846451  1.405283 -1.269264
      ESP Fit Center  392 is at  -3.440274  2.986670 -2.229264
      ESP Fit Center  393 is at  -4.271659  2.382634 -2.229264
      ESP Fit Center  394 is at  -4.589219  1.405283 -2.229264
      ESP Fit Center  395 is at  -2.446451  2.236667 -2.932033
      ESP Fit Center  396 is at  -3.406451  2.236667 -2.932033
      ESP Fit Center  397 is at  -3.886451  1.405283 -2.932033
      ESP Fit Center  398 is at  -3.406451  0.573898 -2.932033
      ESP Fit Center  399 is at  -2.926451  1.405283 -3.189264
      ESP Fit Center  400 is at   4.468582 -0.536160  1.592580
      ESP Fit Center  401 is at   5.428582 -0.536160  1.335349
      ESP Fit Center  402 is at   4.948582  0.295224  1.335349
      ESP Fit Center  403 is at   3.988582 -1.367545  1.335349
      ESP Fit Center  404 is at   4.948582 -1.367545  1.335349
      ESP Fit Center  405 is at   6.131350 -0.536160  0.632580
      ESP Fit Center  406 is at   5.813790  0.441191  0.632580
      ESP Fit Center  407 is at   3.954758 -2.117547  0.632580
      ESP Fit Center  408 is at   4.982405 -2.117547  0.632580
      ESP Fit Center  409 is at   5.813790 -1.513511  0.632580
      ESP Fit Center  410 is at   6.388582 -0.536160 -0.327420
      ESP Fit Center  411 is at   6.131350  0.423840 -0.327420
      ESP Fit Center  412 is at   4.468582 -2.456160 -0.327420
      ESP Fit Center  413 is at   5.428582 -2.198929 -0.327420
      ESP Fit Center  414 is at   6.131350 -1.496160 -0.327420
      ESP Fit Center  415 is at   6.131350 -0.536160 -1.287420
      ESP Fit Center  416 is at   4.982405 -2.117547 -1.287420
      ESP Fit Center  417 is at   5.813790 -1.513511 -1.287420
      ESP Fit Center  418 is at   3.670284 -2.545341 -1.898593
      ESP Fit Center  419 is at   4.630284 -2.288110 -1.898593
      ESP Fit Center  420 is at   5.333052 -1.585341 -1.898593
      ESP Fit Center  421 is at   5.333052 -0.625341 -2.858593
      ESP Fit Center  422 is at   5.015492  0.352010 -2.858593
      ESP Fit Center  423 is at   2.007515 -0.625341 -2.858593
      ESP Fit Center  424 is at   2.325076 -1.602692 -2.858593
      ESP Fit Center  425 is at   3.156460 -2.206728 -2.858593
      ESP Fit Center  426 is at   4.184108 -2.206728 -2.858593
      ESP Fit Center  427 is at   5.015492 -1.602692 -2.858593
      ESP Fit Center  428 is at   4.630284 -0.625341 -3.561362
      ESP Fit Center  429 is at   4.150284  0.206043 -3.561362
      ESP Fit Center  430 is at   3.190284  0.206043 -3.561362
      ESP Fit Center  431 is at   2.710284 -0.625341 -3.561362
      ESP Fit Center  432 is at   3.190284 -1.456725 -3.561362
      ESP Fit Center  433 is at   4.150284 -1.456725 -3.561362
      ESP Fit Center  434 is at   3.670284 -0.625341 -3.818593
      ESP Fit Center  435 is at   4.332332  1.783607  0.581695
      ESP Fit Center  436 is at   5.197540  1.929574 -0.121074
      ESP Fit Center  437 is at   4.366156  2.533610 -0.121074
      ESP Fit Center  438 is at   5.515101  1.912223 -1.081074
      ESP Fit Center  439 is at   4.812332  2.614992 -1.081074
      ESP Fit Center  440 is at   3.852332  2.872223 -1.081074
      ESP Fit Center  441 is at   2.892332  2.614992 -1.081074
      ESP Fit Center  442 is at   5.515101  0.952223 -2.041074
      ESP Fit Center  443 is at   5.197540  1.929574 -2.041074
      ESP Fit Center  444 is at   4.366156  2.533610 -2.041074
      ESP Fit Center  445 is at   3.338508  2.533610 -2.041074
      ESP Fit Center  446 is at   2.507124  1.929574 -2.041074
      ESP Fit Center  447 is at   4.332332  1.783607 -2.743842
      ESP Fit Center  448 is at   3.372332  1.783607 -2.743842
      ESP Fit Center  449 is at  -0.907822  2.789488  2.762746
      ESP Fit Center  450 is at  -0.427822  3.620873  2.505514
      ESP Fit Center  451 is at  -1.387822  3.620873  2.505514
      ESP Fit Center  452 is at  -1.867822  2.789488  2.505514
      ESP Fit Center  453 is at  -1.387822  1.958104  2.505514
      ESP Fit Center  454 is at   0.437387  3.766839  1.802746
      ESP Fit Center  455 is at  -0.393998  4.370875  1.802746
      ESP Fit Center  456 is at  -1.421645  4.370875  1.802746
      ESP Fit Center  457 is at  -2.253030  3.766839  1.802746
      ESP Fit Center  458 is at  -2.570590  2.789488  1.802746
      ESP Fit Center  459 is at   0.052178  4.452257  0.842746
      ESP Fit Center  460 is at  -0.907822  4.709488  0.842746
      ESP Fit Center  461 is at  -1.867822  4.452257  0.842746
      ESP Fit Center  462 is at  -2.570590  3.749488  0.842746
      ESP Fit Center  463 is at   1.562377  3.311391  0.485513
      ESP Fit Center  464 is at   1.879938  3.294040 -0.474487
      ESP Fit Center  465 is at   1.177169  3.996809 -0.474487
      ESP Fit Center  466 is at   1.879938  2.334040 -1.434487
      ESP Fit Center  467 is at   1.562377  3.311391 -1.434487
      ESP Fit Center  468 is at   0.730993  3.915427 -1.434487
      ESP Fit Center  469 is at   1.177169  2.334040 -2.137255
      ESP Fit Center  470 is at   0.697169  3.165424 -2.137255
      ESP Fit Center  471 is at   0.697169  1.502656 -2.137255
      ESP Fit Center  472 is at   0.217169  2.334040 -2.394487
      ESP Fit Center  473 is at  -1.954629  4.452979  0.108315
      ESP Fit Center  474 is at  -2.786013  3.848943  0.108315
      ESP Fit Center  475 is at  -1.440805  4.791592 -0.851685
      ESP Fit Center  476 is at  -2.400805  4.534361 -0.851685
      ESP Fit Center  477 is at  -3.103574  3.831592 -0.851685
      ESP Fit Center  478 is at  -0.926981  4.452979 -1.811685
      ESP Fit Center  479 is at  -1.954629  4.452979 -1.811685
      ESP Fit Center  480 is at  -2.786013  3.848943 -1.811685
      ESP Fit Center  481 is at  -0.480805  2.871592 -2.514454
      ESP Fit Center  482 is at  -0.960805  3.702977 -2.514454
      ESP Fit Center  483 is at  -1.920805  3.702977 -2.514454
      ESP Fit Center  484 is at  -2.400805  2.871592 -2.514454
      ESP Fit Center  485 is at  -1.440805  2.871592 -2.771685
      ESP Fit Center  486 is at   0.501777  1.249347  3.912151
      ESP Fit Center  487 is at   1.461777  1.249347  3.654920
      ESP Fit Center  488 is at   0.981777  2.080732  3.654920
      ESP Fit Center  489 is at   0.021777  2.080732  3.654920
      ESP Fit Center  490 is at  -0.458223  1.249347  3.654920
      ESP Fit Center  491 is at   1.846985  2.226698  2.952151
      ESP Fit Center  492 is at   1.015600  2.830734  2.952151
      ESP Fit Center  493 is at  -0.012047  2.830734  2.952151
      ESP Fit Center  494 is at  -0.843432  2.226698  2.952151
      ESP Fit Center  495 is at  -1.160992  1.249347  2.952151
      ESP Fit Center  496 is at   1.461777  2.912116  1.992151
      ESP Fit Center  497 is at   0.927165 -0.465407  3.946081
      ESP Fit Center  498 is at   1.887165 -0.465407  3.688850
      ESP Fit Center  499 is at   1.407165  0.365977  3.688850
      ESP Fit Center  500 is at  -0.032835 -0.465407  3.688850
      ESP Fit Center  501 is at   0.447165 -1.296792  3.688850
      ESP Fit Center  502 is at   1.407165 -1.296792  3.688850
      ESP Fit Center  503 is at   2.589933 -0.465407  2.986081
      ESP Fit Center  504 is at   0.413341 -2.046794  2.986081
      ESP Fit Center  505 is at   1.440988 -2.046794  2.986081
      ESP Fit Center  506 is at   2.272373 -1.442758  2.986081
[...]
  370 Fit       0.128573
  371 Fit       0.119078
  372 Fit       0.116960
  373 Fit       0.118688
  374 Fit       0.120938
  375 Fit       0.125715
  376 Fit       0.118766
  377 Fit       0.117581
  378 Fit       0.127294
  379 Fit       0.117519
  380 Fit       0.110748
  381 Fit       0.109822
  382 Fit       0.130336
  383 Fit       0.112348
  384 Fit       0.100727
  385 Fit       0.088880
  386 Fit       0.100003
  387 Fit       0.150294
  388 Fit       0.138530
  389 Fit       0.140361
  390 Fit       0.134402
  391 Fit       0.137489
  392 Fit       0.140420
  393 Fit       0.133670
  394 Fit       0.136026
  395 Fit       0.141626
  396 Fit       0.135081
  397 Fit       0.134275
  398 Fit       0.138869
  399 Fit       0.134995
  400 Fit       0.112074
  401 Fit       0.100424
  402 Fit       0.111217
  403 Fit       0.108076
  404 Fit       0.098925
  405 Fit       0.093624
  406 Fit       0.099624
  407 Fit       0.090436
  408 Fit       0.090265
  409 Fit       0.091168
  410 Fit       0.089786
  411 Fit       0.094473
  412 Fit       0.082886
  413 Fit       0.085668
  414 Fit       0.087404
  415 Fit       0.089056
  416 Fit       0.085146
  417 Fit       0.086317
  418 Fit       0.075117
  419 Fit       0.081973
  420 Fit       0.086793
  421 Fit       0.087237
  422 Fit       0.092353
  423 Fit       0.099966
  424 Fit       0.084529
  425 Fit       0.080573
  426 Fit       0.082106
  427 Fit       0.084201
  428 Fit       0.087596
  429 Fit       0.092059
  430 Fit       0.096707
  431 Fit       0.094515
  432 Fit       0.087769
  433 Fit       0.085906
  434 Fit       0.090286
  435 Fit       0.132919
  436 Fit       0.107591
  437 Fit       0.121933
  438 Fit       0.098609
  439 Fit       0.106156
  440 Fit       0.118106
  441 Fit       0.132553
  442 Fit       0.093952
  443 Fit       0.096256
  444 Fit       0.103512
  445 Fit       0.113361
  446 Fit       0.121642
  447 Fit       0.098188
  448 Fit       0.105411
  449 Fit       0.143318
  450 Fit       0.135923
  451 Fit       0.130991
  452 Fit       0.137211
  453 Fit       0.153307
  454 Fit       0.141002
  455 Fit       0.129780
  456 Fit       0.126555
  457 Fit       0.129366
  458 Fit       0.138251
  459 Fit       0.134479
  460 Fit       0.129353
  461 Fit       0.129701
  462 Fit       0.135814
  463 Fit       0.151990
  464 Fit       0.141357
  465 Fit       0.134848
  466 Fit       0.134029
  467 Fit       0.131263
  468 Fit       0.130796
  469 Fit       0.129766
  470 Fit       0.129433
  471 Fit       0.133313
  472 Fit       0.133988
  473 Fit       0.133432
  474 Fit       0.137387
  475 Fit       0.127667
  476 Fit       0.128581
  477 Fit       0.137903
  478 Fit       0.126853
  479 Fit       0.127024
  480 Fit       0.136014
  481 Fit       0.135170
  482 Fit       0.128998
  483 Fit       0.131855
  484 Fit       0.148084
  485 Fit       0.137136
  486 Fit       0.127376
  487 Fit       0.128480
  488 Fit       0.128912
  489 Fit       0.131314
  490 Fit       0.133199
  491 Fit       0.138393
  492 Fit       0.137143
  493 Fit       0.141329
  494 Fit       0.145636
  495 Fit       0.146705
  496 Fit       0.152727
  497 Fit       0.120834
  498 Fit       0.118207
  499 Fit       0.126891
  500 Fit       0.129025
  501 Fit       0.122388
  502 Fit       0.116059
  503 Fit       0.120427
  504 Fit       0.128524
  505 Fit       0.114761
  506 Fit       0.112945
  507 Fit       0.103256
  508 Fit       0.112157
  509 Fit       0.133457
  510 Fit       0.139640
  511 Fit       0.131676
  512 Fit       0.134238
  513 Fit       0.140064
  514 Fit       0.152310
  515 Fit       0.135160
  516 Fit       0.137542
  517 Fit       0.144345
  518 Fit       0.139843
  519 Fit       0.114565
  520 Fit       0.115926
  521 Fit       0.123425
  522 Fit       0.114798
  523 Fit       0.112950
  524 Fit       0.116469
  525 Fit       0.099974
  526 Fit       0.120068
  527 Fit       0.103660
  528 Fit       0.096574
  529 Fit       0.106590
  530 Fit       0.127141
  531 Fit       0.114176
  532 Fit       0.114345
  533 Fit       0.117450
  534 Fit       0.113990
  535 Fit       0.116751
  536 Fit       0.113389
  537 Fit       0.109304
  538 Fit       0.107817
  539 Fit       0.114034
  540 Fit       0.108889
  541 Fit       0.115246
  542 Fit       0.122547
  543 Fit       0.127249
  544 Fit       0.116435
  545 Fit       0.115637
  546 Fit       0.119675
  547 Fit       0.116879
  548 Fit       0.102798
  549 Fit       0.090930
  550 Fit       0.128536
  551 Fit       0.131936
  552 Fit       0.123146
  553 Fit       0.134419
  554 Fit       0.125374
  555 Fit       0.117978
  556 Fit       0.123324
  557 Fit       0.131829
  558 Fit       0.128518
  559 Fit       0.117384
  560 Fit       0.123464
  561 Fit       0.130620
  562 Fit       0.144435
  563 Fit       0.132713
  564 Fit       0.103260
  565 Fit       0.084431
  566 Fit       0.126258
  567 Fit       0.120409
  568 Fit       0.102042
  569 Fit       0.090573
  570 Fit       0.078517
  571 Fit       0.084417
  572 Fit       0.088275
  573 Fit       0.082836
  574 Fit       0.085054
  575 Fit       0.088462
  576 Fit       0.109275
  577 Fit       0.109950
  578 Fit       0.132637
  579 Fit       0.132543
  580 Fit       0.124143
  581 Fit       0.122517
  582 Fit       0.122884
  583 Fit       0.124162
  584 Fit       0.127989
  585 Fit       0.132726
  586 Fit       0.121364
  587 Fit       0.119451
  588 Fit       0.126434
  589 Fit       0.120805
  590 Fit       0.127938
  591 Fit       0.132864
  592 Fit       0.133875
  593 Fit       0.117103
  594 Fit       0.130194
  595 Fit       0.121314
  596 Fit       0.116731
  597 Fit       0.091191
  598 Fit       0.080398
  599 Fit       0.070792
  600 Fit       0.080172
  601 Fit       0.069923
  602 Fit       0.059713
  603 Fit       0.062105
  604 Fit       0.078791
  605 Fit       0.061620
  606 Fit       0.054316
  607 Fit       0.058042
  608 Fit       0.089259
  609 Fit       0.071180
  610 Fit       0.058541
  611 Fit       0.057034
  612 Fit       0.084748
  613 Fit       0.068517
  614 Fit       0.068117
  615 Fit       0.082381
  616 Fit       0.112410
  617 Fit       0.120018
  618 Fit       0.112094
  619 Fit       0.108059
  620 Fit       0.107854
  621 Fit       0.112452
  622 Fit       0.115532
  623 Fit       0.108621
  624 Fit       0.105759
  625 Fit       0.105616
  626 Fit       0.108293
  627 Fit       0.120130
  628 Fit       0.109789
  629 Fit       0.105888
  630 Fit       0.105186
  631 Fit       0.112900
  632 Fit       0.114658
  633 Fit       0.112950
  634 Fit       0.119730
  635 Fit       0.122479
  636 Fit       0.112597
  637 Fit       0.109720
  638 Fit       0.111816
  639 Fit       0.120005
  640 Fit       0.124783
  641 Fit       0.113006
  642 Fit       0.108977
  643 Fit       0.109689
  644 Fit       0.114120
  645 Fit       0.121626
  646 Fit       0.111531
  647 Fit       0.109645
  648 Fit       0.114252
  649 Fit       0.119487
  650 Fit       0.112138
  651 Fit       0.110585
  652 Fit       0.117225
  653 Fit       0.108137
  654 Fit       0.102895
  655 Fit       0.103553
  656 Fit       0.116961
  657 Fit       0.102530
  658 Fit       0.092359
  659 Fit       0.089647
  660 Fit       0.132891
  661 Fit       0.135073
  662 Fit       0.126673
  663 Fit       0.126078
  664 Fit       0.134529
  665 Fit       0.125811
  666 Fit       0.124656
  667 Fit       0.132385
  668 Fit       0.132833
  669 Fit       0.125994
  670 Fit       0.125438
  671 Fit       0.126501
  672 Fit       0.108034
  673 Fit       0.095517
  674 Fit       0.107538
  675 Fit       0.093983
  676 Fit       0.088407
  677 Fit       0.094331
  678 Fit       0.085092
  679 Fit       0.085243
  680 Fit       0.085943
  681 Fit       0.084770
  682 Fit       0.089510
  683 Fit       0.079076
  684 Fit       0.081011
  685 Fit       0.082400
  686 Fit       0.084551
  687 Fit       0.081984
  688 Fit       0.073183
  689 Fit       0.078816
  690 Fit       0.082893
  691 Fit       0.104077
  692 Fit       0.089054
  693 Fit       0.077920
  694 Fit       0.076470
  695 Fit       0.077862
  696 Fit       0.079854
  697 Fit       0.082926
  698 Fit       0.088023
  699 Fit       0.093230
  700 Fit       0.090780
  701 Fit       0.083285
  702 Fit       0.081033
  703 Fit       0.085754
  704 Fit       0.102188
  705 Fit       0.113643
  706 Fit       0.093389
  707 Fit       0.099556
  708 Fit       0.110084
  709 Fit       0.124705
  710 Fit       0.090953
  711 Fit       0.096967
  712 Fit       0.106204
  713 Fit       0.116437
  714 Fit       0.093785
  715 Fit       0.101721
  716 Fit       0.135862
  717 Fit       0.128415
  718 Fit       0.123365
  719 Fit       0.129871
  720 Fit       0.146322
  721 Fit       0.136129
  722 Fit       0.123772
  723 Fit       0.119321
  724 Fit       0.120373
  725 Fit       0.126552
  726 Fit       0.137517
  727 Fit       0.128808
  728 Fit       0.122702
  729 Fit       0.121945
  730 Fit       0.126111
  731 Fit       0.136982
  732 Fit       0.128336
  733 Fit       0.125235
  734 Fit       0.123270
  735 Fit       0.123789
  736 Fit       0.122895
  737 Fit       0.127752
  738 Fit       0.127474
  739 Fit       0.121024
  740 Fit       0.119883
  741 Fit       0.125192
  742 Fit       0.120276
  743 Fit       0.118410
  744 Fit       0.123220
  745 Fit       0.121611
  746 Fit       0.123785
  747 Fit       0.129438
  748 Fit       0.120291
  749 Fit       0.121482
  750 Fit       0.121448
  751 Fit       0.123782
  752 Fit       0.126029
  753 Fit       0.131292
  754 Fit       0.129396
  755 Fit       0.132104
  756 Fit       0.137212
  757 Fit       0.138966
  758 Fit       0.114461
  759 Fit       0.111905
  760 Fit       0.122730
  761 Fit       0.115695
  762 Fit       0.109318
  763 Fit       0.114676
  764 Fit       0.117441
  765 Fit       0.106703
  766 Fit       0.106999
  767 Fit       0.125187
  768 Fit       0.130581
  769 Fit       0.122915
  770 Fit       0.124293
  771 Fit       0.129055
  772 Fit       0.139359
  773 Fit       0.125504
  774 Fit       0.127348
  775 Fit       0.133383
  776 Fit       0.130870
  777 Fit       0.109551
  778 Fit       0.109918
  779 Fit       0.117995
  780 Fit       0.109363
  781 Fit       0.106525
  782 Fit       0.107501
  783 Fit       0.110742
  784 Fit       0.107701
  785 Fit       0.100278
  786 Fit       0.099127
  787 Fit       0.091231
  788 Fit       0.097710
  789 Fit       0.103776
  790 Fit       0.097663
  791 Fit       0.093094
  792 Fit       0.101775
  793 Fit       0.122585
  794 Fit       0.109763
  795 Fit       0.109255
  796 Fit       0.114271
  797 Fit       0.107984
  798 Fit       0.107388
  799 Fit       0.116056
  800 Fit       0.105409
  801 Fit       0.102728
  802 Fit       0.102787
  803 Fit       0.108824
  804 Fit       0.106338
  805 Fit       0.103753
  806 Fit       0.109119
  807 Fit       0.116352
  808 Fit       0.120891
  809 Fit       0.111392
  810 Fit       0.109702
  811 Fit       0.113908
  812 Fit       0.110047
  813 Fit       0.109220
  814 Fit       0.091045
  815 Fit       0.123853
  816 Fit       0.125344
  817 Fit       0.117776
  818 Fit       0.129381
  819 Fit       0.119949
  820 Fit       0.115566
  821 Fit       0.120981
  822 Fit       0.118107
  823 Fit       0.122773
  824 Fit       0.120321
  825 Fit       0.111704
  826 Fit       0.116106
  827 Fit       0.122228
  828 Fit       0.119070
  829 Fit       0.111548
  830 Fit       0.115881
  831 Fit       0.123806
  832 Fit       0.134647
  833 Fit       0.125134
  834 Fit       0.091644
  835 Fit       0.099226
  836 Fit       0.086154
  837 Fit       0.119985
  838 Fit       0.115095
  839 Fit       0.098935
  840 Fit       0.102751
  841 Fit       0.087676
  842 Fit       0.081202
  843 Fit       0.084047
  844 Fit       0.068560
  845 Fit       0.074816
  846 Fit       0.079669
  847 Fit       0.082848
  848 Fit       0.078336
  849 Fit       0.084035
  850 Fit       0.103141
  851 Fit       0.103634
  852 Fit       0.128380
  853 Fit       0.126873
  854 Fit       0.118472
  855 Fit       0.115384
  856 Fit       0.115439
  857 Fit       0.118211
  858 Fit       0.124410
  859 Fit       0.116315
  860 Fit       0.114435
  861 Fit       0.115303
  862 Fit       0.116805
  863 Fit       0.120770
  864 Fit       0.119486
  865 Fit       0.125097
  866 Fit       0.125173
  867 Fit       0.113915
  868 Fit       0.112136
  869 Fit       0.118067
  870 Fit       0.112932
  871 Fit       0.118178
  872 Fit       0.123301
  873 Fit       0.126877
  874 Fit       0.126603
  875 Fit       0.125172
  876 Fit       0.123348
  877 Fit       0.114122
  878 Fit       0.111099
  879 Fit       0.115134
  880 Fit       0.127149
  881 Fit       0.082032
  882 Fit       0.076408
  883 Fit       0.084323
  884 Fit       0.072701
  885 Fit       0.065080
  886 Fit       0.068004
  887 Fit       0.069996
  888 Fit       0.060488
  889 Fit       0.058877
  890 Fit       0.065340
  891 Fit       0.072582
  892 Fit       0.060861
  893 Fit       0.057090
  894 Fit       0.062089
  895 Fit       0.098142
  896 Fit       0.082748
  897 Fit       0.069079
  898 Fit       0.061323
  899 Fit       0.062701
  900 Fit       0.085991
  901 Fit       0.072163
  902 Fit       0.071689
  903 Fit       0.083420
  904 Fit       0.107520
  905 Fit       0.106117
  906 Fit       0.102501
  907 Fit       0.102699
  908 Fit       0.107952
  909 Fit       0.104530
  910 Fit       0.100606
  911 Fit       0.099436
  912 Fit       0.100794
  913 Fit       0.105637
  914 Fit       0.107024
  915 Fit       0.101229
  916 Fit       0.098817
  917 Fit       0.098620
  918 Fit       0.100124
  919 Fit       0.104513
  920 Fit       0.100322
  921 Fit       0.099417
  922 Fit       0.110101
  923 Fit       0.105064
  924 Fit       0.105052
  925 Fit       0.110241
  926 Fit       0.122364
  927 Fit       0.109265
  928 Fit       0.103753
  929 Fit       0.102668
  930 Fit       0.105294
  931 Fit       0.112058
  932 Fit       0.117091
  933 Fit       0.106621
  934 Fit       0.102607
  935 Fit       0.102819
  936 Fit       0.106078
  937 Fit       0.114307
  938 Fit       0.105537
  939 Fit       0.103773
  940 Fit       0.108506
  941 Fit       0.114002
  942 Fit       0.106909
  943 Fit       0.105909
  944 Fit       0.109261
  945 Fit       0.102410
  946 Fit       0.099008
  947 Fit       0.101749
  948 Fit       0.104498
  949 Fit       0.096000
  950 Fit       0.090660
  951 Fit       0.093394
  952 Fit       0.122830
  953 Fit       0.119300
  954 Fit       0.119593
  955 Fit       0.117085
  956 Fit       0.120802
  957 Fit       0.124376
  958 Fit       0.117671
  959 Fit       0.116889
  960 Fit       0.123008
  961 Fit       0.123803
  962 Fit       0.118282
  963 Fit       0.117876
  964 Fit       0.119253
  965 Fit       0.104544
  966 Fit       0.092828
  967 Fit       0.104405
  968 Fit       0.091583
  969 Fit       0.085707
  970 Fit       0.091938
  971 Fit       0.084901
  972 Fit       0.083218
  973 Fit       0.083283
  974 Fit       0.081658
  975 Fit       0.086237
  976 Fit       0.077464
  977 Fit       0.078327
  978 Fit       0.079380
  979 Fit       0.080126
  980 Fit       0.075504
  981 Fit       0.076670
  982 Fit       0.077825
  983 Fit       0.068346
  984 Fit       0.072165
  985 Fit       0.074978
  986 Fit       0.077795
  987 Fit       0.078762
  988 Fit       0.098195
  989 Fit       0.087335
  990 Fit       0.077885
  991 Fit       0.074773
  992 Fit       0.074799
  993 Fit       0.076134
  994 Fit       0.079312
  995 Fit       0.084097
  996 Fit       0.088841
  997 Fit       0.086819
  998 Fit       0.080181
  999 Fit       0.077657
 1000 Fit       0.082052
 1001 Fit       0.101616
 1002 Fit       0.113594
 1003 Fit       0.091553
 1004 Fit       0.097186
 1005 Fit       0.107673
 1006 Fit       0.087185
 1007 Fit       0.091658
 1008 Fit       0.099449
 1009 Fit       0.110583
 1010 Fit       0.123859
 1011 Fit       0.086612
 1012 Fit       0.091765
 1013 Fit       0.099977
 1014 Fit       0.109407
 1015 Fit       0.090047
 1016 Fit       0.097230
 1017 Fit       0.129186
 1018 Fit       0.122650
 1019 Fit       0.117937
 1020 Fit       0.123796
 1021 Fit       0.129703
 1022 Fit       0.117856
 1023 Fit       0.113443
 1024 Fit       0.114257
 1025 Fit       0.119700
 1026 Fit       0.129405
 1027 Fit       0.122343
 1028 Fit       0.115389
 1029 Fit       0.113315
 1030 Fit       0.115157
 1031 Fit       0.121022
 1032 Fit       0.126940
 1033 Fit       0.126932
 1034 Fit       0.119876
 1035 Fit       0.118177
 1036 Fit       0.116781
 1037 Fit       0.118388
 1038 Fit       0.117529
 1039 Fit       0.122424
 1040 Fit       0.115213
 1041 Fit       0.117060
 1042 Fit       0.125342
 1043 Fit       0.113596
 1044 Fit       0.111991
 1045 Fit       0.115241
 1046 Fit       0.125250
 1047 Fit       0.113647
 1048 Fit       0.112186
 1049 Fit       0.116672
 1050 Fit       0.115785
 1051 Fit       0.117507
 1052 Fit       0.122676
 1053 Fit       0.114093
 1054 Fit       0.114661
 1055 Fit       0.114433
 1056 Fit       0.116365
 1057 Fit       0.118503
 1058 Fit       0.120627
 1059 Fit       0.119805
 1060 Fit       0.121896
 1061 Fit       0.125566
 1062 Fit       0.127623
 1063 Fit       0.132301
 1064 Fit       0.130379
 1065 Fit       0.108887
 1066 Fit       0.106452
 1067 Fit       0.115551
 1068 Fit       0.109292
 1069 Fit       0.104108
 1070 Fit       0.108078
 1071 Fit       0.109521
 1072 Fit       0.101915
 1073 Fit       0.101994
 1074 Fit       0.102132
 1075 Fit       0.096882
 1076 Fit       0.103714
 1077 Fit       0.119167
 1078 Fit       0.123679
 1079 Fit       0.115567
 1080 Fit       0.116754
 1081 Fit       0.121549
 1082 Fit       0.131901
 1083 Fit       0.116228
 1084 Fit       0.118309
 1085 Fit       0.123779
 1086 Fit       0.134932
 1087 Fit       0.120113
 1088 Fit       0.124535
 -----------------------------------------------------------------
 Leave Link  602 at Sat Feb 17 21:02:29 2018, MaxMem=   33554432 cpu:       0.5

 Test job not archived.
 1\1\GINC-NODE039\SP\RHF\6-31G(d)\C9H13N2O1(1+)\WULSDORT\17-Feb-2018\0\
 \#HF/6-31G* Geom=AllCheck Guess=Read Pop=(MK,ReadRadii) Integral=(Grid
 =UltraFine) iop(6/33=2)\\Optimization for frag31-conf1\\1,1\C,0,1.6270
 690289,-0.7505759922,-0.0684397095\C,0,0.5077983384,-0.3781640747,0.68
 00583486\C,0,2.687445229,-1.3852091884,0.5689294533\C,0,0.4893309233,-
 0.6590679656,2.0304034157\C,0,2.6397373331,-1.6620127563,1.9332280235\
 C,0,5.2986571557,-0.5022819284,3.0022654375\C,0,6.2761274862,0.1689793
 87,3.9405033962\C,0,1.4234626399,-1.5833299452,4.0871060348\C,0,3.7855
 776081,-2.3774246243,2.6290471928\N,0,1.5299135902,-1.2912473824,2.636
 7575434\N,0,4.5210573702,-1.5169373573,3.5487889662\O,0,5.1632222027,-
 0.2012206714,1.8261945076\H,0,1.6763934602,-0.5377193087,-1.1314649958
 \H,0,-0.3399197769,0.1267391806,0.2312571038\H,0,3.5868041207,-1.64992
 64929,0.0271079547\H,0,-0.3453707195,-0.3968299454,2.6682091888\H,0,7.
 278467309,-0.2371112961,3.7610753589\H,0,6.3089003908,1.2364388446,3.7
 120005275\H,0,6.026046506,0.027301011,4.9958101296\H,0,1.3434803392,-2
 .6626057582,4.2384054058\H,0,2.3062175421,-1.1946992581,4.5941090672\H
 ,0,0.5292955253,-1.0999101178,4.4771360708\H,0,3.406910006,-3.23573719
 68,3.192502335\H,0,4.4439383139,-2.7611989761,1.8427339122\H,0,4.82182
 94253,-1.9305443884,4.4230937767\\Version=AM64L-G09RevC.01\State=1-A\H
 F=-531.9581159\RMSD=9.756e-09\Dipole=-1.7992609,-0.8875865,0.844115\Qu
 adrupole=7.1407702,-10.1884913,3.0477211,-4.0295668,8.3492331,-1.79084
 5\PG=C01 [X(C9H13N2O1)]\\@


 TIMES HAVE CHANGED. IN THE BIBLE WHEN AN ASS
 SPOKE IT WAS CONSIDERED A MIRACLE.
 Job cpu time:  0 days  0 hours  2 minutes 21.9 seconds.
 File lengths (MBytes):  RWF=     27 Int=      0 D2E=      0 Chk=      4 Scr=      1
 Normal termination of Gaussian 09 at Sat Feb 17 21:02:29 2018.
