 Entering Gaussian System, Link 0=g09
 Initial command:
 /home/fb_chem/chemsoft/lx24-amd64/Gaussian_09_C.01_NBO_3.1_64_istanbul-64/g09/l1.exe /local/2401522.1.parallel_long/Gau-20371.inp -scrdir=/local/2401522.1.parallel_long/
 Entering Link 1 = /home/fb_chem/chemsoft/lx24-amd64/Gaussian_09_C.01_NBO_3.1_64_istanbul-64/g09/l1.exe PID=     20372.
  
 Copyright (c) 1988,1990,1992,1993,1995,1998,2003,2009,2011,
            Gaussian, Inc.  All Rights Reserved.
  
 This is part of the Gaussian(R) 09 program.  It is based on
 the Gaussian(R) 03 system (copyright 2003, Gaussian, Inc.),
 the Gaussian(R) 98 system (copyright 1998, Gaussian, Inc.),
 the Gaussian(R) 94 system (copyright 1995, Gaussian, Inc.),
 the Gaussian 92(TM) system (copyright 1992, Gaussian, Inc.),
 the Gaussian 90(TM) system (copyright 1990, Gaussian, Inc.),
 the Gaussian 88(TM) system (copyright 1988, Gaussian, Inc.),
 the Gaussian 86(TM) system (copyright 1986, Carnegie Mellon
 University), and the Gaussian 82(TM) system (copyright 1983,
 Carnegie Mellon University). Gaussian is a federally registered
 trademark of Gaussian, Inc.
  
 This software contains proprietary and confidential information,
 including trade secrets, belonging to Gaussian, Inc.
  
 This software is provided under written license and may be
 used, copied, transmitted, or stored only in accord with that
 written license.
  
 The following legend is applicable only to US Government
 contracts under FAR:
  
                    RESTRICTED RIGHTS LEGEND
  
 Use, reproduction and disclosure by the US Government is
 subject to restrictions as set forth in subparagraphs (a)
 and (c) of the Commercial Computer Software - Restricted
 Rights clause in FAR 52.227-19.
  
 Gaussian, Inc.
 340 Quinnipiac St., Bldg. 40, Wallingford CT 06492
  
  
 ---------------------------------------------------------------
 Warning -- This program may not be used in any manner that
 competes with the business of Gaussian, Inc. or will provide
 assistance to any competitor of Gaussian, Inc.  The licensee
 of this program is prohibited from giving any competitor of
 Gaussian, Inc. access to this program.  By using this program,
 the user acknowledges that Gaussian, Inc. is engaged in the
 business of creating and licensing software in the field of
 computational chemistry and represents and warrants to the
 licensee that it is not a competitor of Gaussian, Inc. and that
 it will not use this program in any manner prohibited above.
 ---------------------------------------------------------------
  

 Cite this work as:
 Gaussian 09, Revision C.01,
 M. J. Frisch, G. W. Trucks, H. B. Schlegel, G. E. Scuseria, 
 M. A. Robb, J. R. Cheeseman, G. Scalmani, V. Barone, B. Mennucci, 
 G. A. Petersson, H. Nakatsuji, M. Caricato, X. Li, H. P. Hratchian, 
 A. F. Izmaylov, J. Bloino, G. Zheng, J. L. Sonnenberg, M. Hada, 
 M. Ehara, K. Toyota, R. Fukuda, J. Hasegawa, M. Ishida, T. Nakajima, 
 Y. Honda, O. Kitao, H. Nakai, T. Vreven, J. A. Montgomery, Jr., 
 J. E. Peralta, F. Ogliaro, M. Bearpark, J. J. Heyd, E. Brothers, 
 K. N. Kudin, V. N. Staroverov, T. Keith, R. Kobayashi, J. Normand, 
 K. Raghavachari, A. Rendell, J. C. Burant, S. S. Iyengar, J. Tomasi, 
 M. Cossi, N. Rega, J. M. Millam, M. Klene, J. E. Knox, J. B. Cross, 
 V. Bakken, C. Adamo, J. Jaramillo, R. Gomperts, R. E. Stratmann, 
 O. Yazyev, A. J. Austin, R. Cammi, C. Pomelli, J. W. Ochterski, 
 R. L. Martin, K. Morokuma, V. G. Zakrzewski, G. A. Voth, 
 P. Salvador, J. J. Dannenberg, S. Dapprich, A. D. Daniels, 
 O. Farkas, J. B. Foresman, J. V. Ortiz, J. Cioslowski, 
 and D. J. Fox, Gaussian, Inc., Wallingford CT, 2010.
 
 ******************************************
 Gaussian 09:  AM64L-G09RevC.01 23-Sep-2011
                18-Feb-2018 
 ******************************************
 %nprocs=2
 Will use up to    2 processors via shared memory.
 %chk=frag37-conf0.chk
 ----------------------------------------------------------------------
 #HF/6-31G* Geom=AllCheck Guess=Read Pop=(MK,ReadRadii) Integral=(Grid=
 UltraFine) iop(6/33=2)
 ----------------------------------------------------------------------
 1/29=7,38=1/1;
 2/12=2,40=1/2;
 3/5=1,6=6,7=1,11=9,14=-4,16=1,25=1,30=1,75=-5,116=-2/1,2,3;
 4/5=1/1;
 5/5=2,38=6/2;
 6/7=2,8=2,9=2,10=2,15=8,20=101,28=1,33=2/1,2;
 99/5=1,9=1/99;
 Structure from the checkpoint file:  frag37-conf0.chk
 -----------------------------
 Optimization for frag37-conf0
 -----------------------------
 Charge =  0 Multiplicity = 1
 Redundant internal coordinates found in file.
 C,0,2.9830169586,-4.9744731449,-2.4933624373
 C,0,6.4207643763,-2.2975473926,-0.744636172
 C,0,-0.852845772,-1.9749075468,-1.7690744765
 C,0,-0.0469389165,-1.5407289787,-3.0010112549
 C,0,0.0523727679,-2.1108610776,-0.5370840511
 C,0,1.1350850046,-2.4867297291,-3.2675138234
 C,0,1.2303563459,-3.0638457139,-0.8005476961
 C,0,2.0464430809,-2.6079257323,-2.0282767621
 C,0,2.3991583641,-6.911708051,-3.8275615444
 C,0,2.9571562663,-4.8333393235,-5.0094117755
 C,0,4.8653326636,-2.1147097454,-0.7688880485
 C,0,3.3010207145,-3.4729347759,-2.3286846326
 N,0,2.7704679004,-5.4995581039,-3.7221527994
 N,0,4.2883051715,-3.4322482677,-1.1928040878
 O,0,7.0773617355,-1.3399072501,-0.306063926
 O,0,2.912706284,-5.6432462438,-1.4512050253
 O,0,6.813075155,-3.4128737318,-1.2030532541
 H,0,-1.6584385328,-1.2570794012,-1.5707490764
 H,0,-1.3351521575,-2.9420426031,-1.9731058831
 H,0,-0.6916132732,-1.5023279309,-3.8874953628
 H,0,0.3354150872,-0.5215865755,-2.8456605573
 H,0,0.4422457101,-1.1206399309,-0.2602143556
 H,0,-0.5237841788,-2.4724350801,0.3233249895
 H,0,0.7472689527,-3.4784295273,-3.5378098374
 H,0,1.7126602238,-2.1222224736,-4.1259091121
 H,0,1.8622261989,-3.1106122474,0.0956047944
 H,0,0.8501179967,-4.0790947677,-0.9666720652
 H,0,2.4275114472,-1.5986907936,-1.817370839
 H,0,1.5225124523,-7.0087709636,-4.4760545197
 H,0,2.1712959976,-7.2972582823,-2.8362809167
 H,0,3.2238015927,-7.4875175825,-4.2638463344
 H,0,3.6801523421,-5.3998101357,-5.6067014724
 H,0,3.3287651847,-3.8186461943,-4.8949383285
 H,0,2.0081065973,-4.7969855181,-5.5551061043
 H,0,4.5991164172,-1.348720298,-1.4991805916
 H,0,4.4749191623,-1.8250504594,0.2063512003
 H,0,3.8317671065,-3.0514662971,-3.1826511571
 H,0,5.1957193796,-3.9285663034,-1.4448111317
 H,0,3.8819012341,-3.9653149163,-0.4167291012
 Recover connectivity data from disk.
                          Input orientation:                          
 ---------------------------------------------------------------------
 Center     Atomic      Atomic             Coordinates (Angstroms)
 Number     Number       Type             X           Y           Z
 ---------------------------------------------------------------------
      1          6           0        2.983017   -4.974473   -2.493362
      2          6           0        6.420764   -2.297547   -0.744636
      3          6           0       -0.852846   -1.974908   -1.769074
      4          6           0       -0.046939   -1.540729   -3.001011
      5          6           0        0.052373   -2.110861   -0.537084
      6          6           0        1.135085   -2.486730   -3.267514
      7          6           0        1.230356   -3.063846   -0.800548
      8          6           0        2.046443   -2.607926   -2.028277
      9          6           0        2.399158   -6.911708   -3.827562
     10          6           0        2.957156   -4.833339   -5.009412
     11          6           0        4.865333   -2.114710   -0.768888
     12          6           0        3.301021   -3.472935   -2.328685
     13          7           0        2.770468   -5.499558   -3.722153
     14          7           0        4.288305   -3.432248   -1.192804
     15          8           0        7.077362   -1.339907   -0.306064
     16          8           0        2.912706   -5.643246   -1.451205
     17          8           0        6.813075   -3.412874   -1.203053
     18          1           0       -1.658439   -1.257079   -1.570749
     19          1           0       -1.335152   -2.942043   -1.973106
     20          1           0       -0.691613   -1.502328   -3.887495
     21          1           0        0.335415   -0.521587   -2.845661
     22          1           0        0.442246   -1.120640   -0.260214
     23          1           0       -0.523784   -2.472435    0.323325
     24          1           0        0.747269   -3.478430   -3.537810
     25          1           0        1.712660   -2.122222   -4.125909
     26          1           0        1.862226   -3.110612    0.095605
     27          1           0        0.850118   -4.079095   -0.966672
     28          1           0        2.427511   -1.598691   -1.817371
     29          1           0        1.522512   -7.008771   -4.476055
     30          1           0        2.171296   -7.297258   -2.836281
     31          1           0        3.223802   -7.487518   -4.263846
     32          1           0        3.680152   -5.399810   -5.606701
     33          1           0        3.328765   -3.818646   -4.894938
     34          1           0        2.008107   -4.796986   -5.555106
     35          1           0        4.599116   -1.348720   -1.499181
     36          1           0        4.474919   -1.825050    0.206351
     37          1           0        3.831767   -3.051466   -3.182651
     38          1           0        5.195719   -3.928566   -1.444811
     39          1           0        3.881901   -3.965315   -0.416729
 ---------------------------------------------------------------------
                    Distance matrix (angstroms):
                    1          2          3          4          5
     1  C    0.000000
     2  C    4.694900   0.000000
     3  C    4.922990   7.352481   0.000000
     4  C    4.607487   6.891675   1.534818   0.000000
     5  C    4.540482   6.374507   1.534830   2.530978   0.000000
     6  C    3.194218   5.859958   2.541486   1.537245   2.961214
     7  C    3.096440   5.246968   2.542354   2.965368   1.537933
     8  C    2.587281   4.569328   2.978888   2.543102   2.539103
     9  C    2.423604   6.853337   6.259784   5.959362   6.275570
    10  C    2.520137   6.051044   5.760775   4.888716   5.987601
    11  C    3.833428   1.566329   5.806676   5.426070   4.818540
    12  C    1.543652   3.691009   4.451051   3.923554   3.952062
    13  N    1.353077   5.695888   5.419048   4.912245   5.386648
    14  N    2.402850   2.456783   5.374697   5.063773   4.485438
    15  O    5.895592   1.241185   8.088994   7.619628   7.070941
    16  O    1.240279   4.898919   5.266605   5.290751   4.636256
    17  O    4.332763   1.268072   7.820132   7.334669   6.917069
    18  H    6.017752   8.187708   1.097082   2.173255   2.173541
    19  H    4.800836   7.879007   1.099817   2.163276   2.162926
    20  H    5.244264   7.816384   2.176473   1.096783   3.485554
    21  H    5.192505   6.678309   2.164057   1.099536   2.816990
    22  H    5.127816   6.112484   2.164184   2.815625   1.099634
    23  H    5.146997   7.028363   2.175764   3.485207   1.096812
    24  H    2.885756   6.433106   2.819463   2.161852   3.370086
    25  H    3.523400   5.799137   3.486860   2.167884   3.954282
    26  H    3.381257   4.706097   3.484031   3.962130   2.162260
    27  H    2.771596   5.852804   2.823391   3.374396   2.166769
    28  H    3.487328   4.193475   3.302214   2.743587   2.746404
    29  H    3.194137   7.753192   6.189495   5.876939   6.454945
    30  H    2.484314   6.886949   6.213838   6.171331   6.055977
    31  H    3.083502   7.038551   7.296013   6.903390   7.270155
    32  H    3.218663   6.385504   6.856049   5.964339   7.048333
    33  H    2.687572   5.394368   5.536810   4.491241   5.713333
    34  H    3.218109   6.989947   5.521160   4.620586   6.018364
    35  H    4.092219   2.188153   5.494438   4.886532   4.709497
    36  H    4.408298   2.216742   5.684175   5.551145   4.493696
    37  H    2.212115   3.635274   5.010267   4.166495   4.708246
    38  H    2.662599   2.156665   6.364516   5.967327   5.530103
    39  H    2.477660   3.055290   5.311157   5.290833   4.256615
                    6          7          8          9         10
     6  C    0.000000
     7  C    2.535362   0.000000
     8  C    1.543039   1.543107   0.000000
     9  C    4.635943   5.033384   4.678074   0.000000
    10  C    3.443941   4.881340   3.830017   2.455147   0.000000
    11  C    4.505139   3.756982   3.126573   6.200701   5.386476
    12  C    2.558374   2.605803   1.553207   3.858128   3.025763
    13  N    3.458079   4.103707   3.428552   1.463950   1.461416
    14  N    3.891172   3.104937   2.530507   4.755782   4.278026
    15  O    6.737658   6.115877   5.466629   8.082790   7.162516
    16  O    4.052470   3.147533   3.208831   2.742225   3.649488
    17  O    6.112226   5.608082   4.904051   6.213899   5.601268
    18  H    3.492109   3.493244   3.969920   7.316565   6.776264
    19  H    2.825752   2.823396   3.398509   5.756937   5.587492
    20  H    2.165699   3.957468   3.489412   6.230398   5.066345
    21  H    2.163150   3.383266   2.819316   6.786517   5.490588
    22  H    3.374919   2.165439   2.812741   7.077566   6.531752
    23  H    3.955525   2.165610   3.486324   6.743930   6.791826
    24  H    1.098604   2.810313   2.173550   3.821007   2.980771
    25  H    1.096951   3.489599   2.178848   4.847624   3.111190
    26  H    3.496932   1.097514   2.190320   5.488885   5.497986
    27  H    2.812598   1.096772   2.173140   4.313689   4.620848
    28  H    2.135859   2.147973   1.099204   5.680653   4.575216
    29  H    4.696757   5.399735   5.062959   1.094748   2.659920
    30  H    4.939725   4.790758   4.760073   1.087753   3.378013
    31  H    5.510290   5.961303   5.494940   1.096329   2.769771
    32  H    4.520531   5.878550   4.823769   2.663103   1.095613
    33  H    3.038872   4.662304   3.365701   3.401543   1.086646
    34  H    3.366382   5.120009   4.151142   2.758511   1.095353
    35  H    4.052355   3.844254   2.895114   6.419346   5.211557
    36  H    4.864160   3.616026   3.391748   6.815814   6.209476
    37  H    2.756488   3.527309   2.171794   4.167702   2.697604
    38  H    4.678663   4.109370   3.464457   4.732588   4.305364
    39  H    4.225895   2.826774   2.794369   4.744843   4.764594
                   11         12         13         14         15
    11  C    0.000000
    12  C    2.593224   0.000000
    13  N    4.956554   2.516037   0.000000
    14  N    1.499524   1.505527   3.602111   0.000000
    15  O    2.389058   4.785557   6.893598   3.597643   0.000000
    16  O    4.090095   2.372975   2.279930   2.616783   6.097084
    17  O    2.380636   3.688520   5.200268   2.524865   2.274121
    18  H    6.628582   5.484589   6.499413   6.343340   8.827259
    19  H    6.370293   4.679998   5.143556   5.698460   8.724463
    20  H    6.401591   4.717447   5.290670   5.982102   8.556284
    21  H    5.231747   4.215749   5.610519   5.179694   7.250727
    22  H    4.561866   4.240808   6.048187   4.583168   6.638896
    23  H    5.510306   4.760597   6.031705   5.135766   7.710783
    24  H    5.146368   2.825537   2.865707   4.247366   7.422098
    25  H    4.605322   2.752695   3.562074   4.117429   6.631987
    26  H    3.279911   2.842285   4.594261   2.765738   5.522171
    27  H    4.474358   2.868699   3.646661   3.505806   6.835065
    28  H    2.703436   2.130082   4.354604   2.685995   4.896134
    29  H    6.990663   4.502935   2.098448   5.587563   8.965556
    30  H    6.196027   4.019873   2.091770   4.703302   8.121669
    31  H    6.616375   4.457319   2.109722   5.197084   8.264810
    32  H    5.966655   3.821254   2.094994   4.870692   7.491368
    33  H    4.721094   2.589584   2.124285   3.843933   6.422919
    34  H    6.185970   3.719480   2.105830   5.107983   8.074725
    35  H    1.091301   2.624008   5.051239   2.128746   2.750510
    36  H    1.089687   3.243450   5.642721   2.139052   2.696413
    37  H    2.787835   1.090223   2.722236   2.076755   4.662411
    38  H    1.963696   2.139793   3.679150   1.064537   3.396834
    39  H    2.125063   2.058017   3.809857   1.025484   4.137146
                   16         17         18         19         20
    16  O    0.000000
    17  O    4.499891   0.000000
    18  H    6.336254   8.749240   0.000000
    19  H    5.060947   8.198065   1.762245   0.000000
    20  H    6.006150   8.196143   2.522342   2.480284   0.000000
    21  H    5.900706   7.281331   2.478266   3.067695   1.761267
    22  H    5.289197   6.835989   2.479716   3.067678   3.819488
    23  H    5.001247   7.552732   2.520327   2.480412   4.324382
    24  H    3.705330   6.499953   3.819837   2.659415   2.469340
    25  H    4.581677   6.018563   4.317594   3.820449   2.494322
    26  H    3.148073   5.127259   4.313629   3.811982   4.997375
    27  H    2.633555   6.004714   3.823812   2.661053   4.189018
    28  H    4.089978   4.785584   4.107616   3.998310   3.744815
    29  H    3.598196   7.185615   7.186182   5.565005   5.964031
    30  H    2.281201   6.269130   7.263071   5.657575   6.548475
    31  H    3.377731   6.233303   8.361065   6.833220   7.162025
    32  H    4.232775   5.758059   7.870939   6.663101   6.103964
    33  H    3.919384   5.092650   6.517980   5.572940   4.748022
    34  H    4.286778   6.629016   6.469126   5.239171   4.574296
    35  H    4.614026   3.041387   6.258635   6.162696   5.806846
    36  H    4.445967   3.158255   6.410831   6.305128   6.599757
    37  H    3.249600   3.596890   5.996700   5.307733   4.832971
    38  H    2.855226   1.714709   7.357458   6.626055   6.820119
    39  H    2.196573   3.084684   6.273888   5.539589   6.247364
                   21         22         23         24         25
    21  H    0.000000
    22  H    2.656089   0.000000
    23  H    3.819228   1.760989   0.000000
    24  H    3.064574   4.049055   4.187596   0.000000
    25  H    2.469388   4.190551   4.991995   1.765542   0.000000
    26  H    4.205383   2.470413   2.480357   3.818392   4.338256
    27  H    4.056030   3.068859   2.476501   2.642371   3.814985
    28  H    2.567956   2.567985   3.749154   3.052301   2.472741
    29  H    6.793449   7.321910   6.913734   3.734249   4.902766
    30  H    7.019991   6.912044   6.365963   4.135632   5.352988
    31  H    7.673215   8.018931   7.761288   4.767927   5.575748
    32  H    6.527456   7.574976   7.836314   4.071096   4.099555
    33  H    4.902070   6.090312   6.624552   2.936268   2.465979
    34  H    5.330856   6.633500   6.809549   2.719887   3.047007
    35  H    4.547121   4.343574   5.552330   4.850608   3.978648
    36  H    5.305590   4.120235   5.041808   5.536044   5.146539
    37  H    4.328779   4.874175   5.621207   3.134097   2.498768
    38  H    6.098561   5.646524   6.161116   4.936798   4.752143
    39  H    5.507861   4.466308   4.710248   4.450182   4.675533
                   26         27         28         29         30
    26  H    0.000000
    27  H    1.758054   0.000000
    28  H    2.502984   3.060108   0.000000
    29  H    6.017567   4.620701   6.095621   0.000000
    30  H    5.120496   3.949370   5.794609   1.786897   0.000000
    31  H    6.325820   5.303120   6.426321   1.780060   1.783791
    32  H    6.407931   5.593144   5.511501   2.919337   3.681330
    33  H    5.249530   4.652182   3.900241   3.689839   4.204586
    34  H    5.898785   4.786442   4.937171   2.508416   3.697297
    35  H    3.624662   4.668351   2.208981   7.096721   6.562565
    36  H    2.913949   4.426724   2.887658   7.583705   6.671533
    37  H    3.824860   3.854454   2.438541   4.760862   4.572077
    38  H    3.762194   4.374417   3.637320   5.671732   4.736181
    39  H    2.252130   3.083357   3.110941   5.595307   4.458951
                   31         32         33         34         35
    31  H    0.000000
    32  H    2.523893   0.000000
    33  H    3.724233   1.769226   0.000000
    34  H    3.222457   1.778144   1.771188   0.000000
    35  H    6.871659   5.841879   4.386969   5.920675   0.000000
    36  H    7.321987   6.870382   5.595645   6.936278   1.775149
    37  H    4.606208   3.378421   1.942551   3.464263   2.514407
    38  H    4.949904   4.667208   3.924408   5.273476   2.648489
    39  H    5.257311   5.388348   4.514624   5.532242   2.921073
                   36         37         38         39
    36  H    0.000000
    37  H    3.661021   0.000000
    38  H    2.769597   2.376922   0.000000
    39  H    2.306649   2.913410   1.668659   0.000000
 Stoichiometry    C12H22N2O3
 Framework group  C1[X(C12H22N2O3)]
 Deg. of freedom   111
 Full point group                 C1      NOp   1
 Largest Abelian subgroup         C1      NOp   1
 Largest concise Abelian subgroup C1      NOp   1
                         Standard orientation:                         
 ---------------------------------------------------------------------
 Center     Atomic      Atomic             Coordinates (Angstroms)
 Number     Number       Type             X           Y           Z
 ---------------------------------------------------------------------
      1          6           0       -0.211686    1.524803   -0.517715
      2          6           0        3.826390   -0.749604    0.232684
      3          6           0       -3.363730   -2.238571   -0.146950
      4          6           0       -2.914856   -1.765193    1.242326
      5          6           0       -2.155664   -2.544745   -1.042794
      6          6           0       -1.958268   -0.565326    1.150770
      7          6           0       -1.202702   -1.341681   -1.141489
      8          6           0       -0.740831   -0.885890    0.258550
      9          6           0       -1.342090    3.664992   -0.642745
     10          6           0       -0.957232    2.701527    1.582422
     11          6           0        2.356571   -1.262151    0.058580
     12          6           0        0.282653    0.282402    0.253603
     13          7           0       -0.822874    2.539497    0.136244
     14          7           0        1.557661   -0.099548   -0.450016
     15          8           0        4.670872   -1.604824    0.542504
     16          8           0       -0.038367    1.519451   -1.745813
     17          8           0        3.959227    0.498204    0.050103
     18          1           0       -4.003815   -3.125013   -0.056940
     19          1           0       -3.974794   -1.454634   -0.617740
     20          1           0       -3.783453   -1.494437    1.854832
     21          1           0       -2.408147   -2.590824    1.762479
     22          1           0       -1.609095   -3.407532   -0.635293
     23          1           0       -2.487400   -2.830624   -2.048389
     24          1           0       -2.501102    0.295778    0.737538
     25          1           0       -1.624314   -0.282556    2.156661
     26          1           0       -0.344268   -1.613639   -1.768917
     27          1           0       -1.710170   -0.513178   -1.650378
     28          1           0       -0.220078   -1.732370    0.728163
     29          1           0       -2.374933    3.868313   -0.342133
     30          1           0       -1.306463    3.415181   -1.700825
     31          1           0       -0.739751    4.562160   -0.457770
     32          1           0       -0.497730    3.649647    1.882911
     33          1           0       -0.473107    1.898067    2.130941
     34          1           0       -2.016208    2.724684    1.861405
     35          1           0        1.963329   -1.578791    1.026071
     36          1           0        2.297415   -2.097759   -0.638325
     37          1           0        0.578784    0.504789    1.278999
     38          1           0        2.300164    0.657100   -0.352997
     39          1           0        1.346448   -0.160045   -1.451687
 ---------------------------------------------------------------------
 Rotational constants (GHZ):      0.4971545      0.3183798      0.2300802
 Standard basis: 6-31G(d) (6D, 7F)
 There are   299 symmetry adapted basis functions of A   symmetry.
 Integral buffers will be    131072 words long.
 Raffenetti 1 integral format.
 Two-electron integral symmetry is turned on.
   299 basis functions,   564 primitive gaussians,   299 cartesian basis functions
    66 alpha electrons       66 beta electrons
       nuclear repulsion energy      1323.2238424142 Hartrees.
 NAtoms=   39 NActive=   39 NUniq=   39 SFac= 1.00D+00 NAtFMM=   60 NAOKFM=F Big=F
 One-electron integrals computed using PRISM.
 NBasis=   299 RedAO= T  NBF=   299
 NBsUse=   299 1.00D-06 NBFU=   299
 Initial guess read from the checkpoint file:  frag37-conf0.chk
 B after Tr=     0.000000    0.000000    0.000000
         Rot=    1.000000    0.000000    0.000000    0.000000 Ang=   0.00 deg.
 Initial guess orbital symmetries:
       Occupied  (A) (A) (A) (A) (A) (A) (A) (A) (A) (A) (A) (A)
                 (A) (A) (A) (A) (A) (A) (A) (A) (A) (A) (A) (A)
                 (A) (A) (A) (A) (A) (A) (A) (A) (A) (A) (A) (A)
                 (A) (A) (A) (A) (A) (A) (A) (A) (A) (A) (A) (A)
                 (A) (A) (A) (A) (A) (A) (A) (A) (A) (A) (A) (A)
                 (A) (A) (A) (A) (A) (A)
       Virtual   (A) (A) (A) (A) (A) (A) (A) (A) (A) (A) (A) (A)
                 (A) (A) (A) (A) (A) (A) (A) (A) (A) (A) (A) (A)
                 (A) (A) (A) (A) (A) (A) (A) (A) (A) (A) (A) (A)
                 (A) (A) (A) (A) (A) (A) (A) (A) (A) (A) (A) (A)
                 (A) (A) (A) (A) (A) (A) (A) (A) (A) (A) (A) (A)
                 (A) (A) (A) (A) (A) (A) (A) (A) (A) (A) (A) (A)
                 (A) (A) (A) (A) (A) (A) (A) (A) (A) (A) (A) (A)
                 (A) (A) (A) (A) (A) (A) (A) (A) (A) (A) (A) (A)
                 (A) (A) (A) (A) (A) (A) (A) (A) (A) (A) (A) (A)
                 (A) (A) (A) (A) (A) (A) (A) (A) (A) (A) (A) (A)
                 (A) (A) (A) (A) (A) (A) (A) (A) (A) (A) (A) (A)
                 (A) (A) (A) (A) (A) (A) (A) (A) (A) (A) (A) (A)
                 (A) (A) (A) (A) (A) (A) (A) (A) (A) (A) (A) (A)
                 (A) (A) (A) (A) (A) (A) (A) (A) (A) (A) (A) (A)
                 (A) (A) (A) (A) (A) (A) (A) (A) (A) (A) (A) (A)
                 (A) (A) (A) (A) (A) (A) (A) (A) (A) (A) (A) (A)
                 (A) (A) (A) (A) (A) (A) (A) (A) (A) (A) (A) (A)
                 (A) (A) (A) (A) (A) (A) (A) (A) (A) (A) (A) (A)
                 (A) (A) (A) (A) (A) (A) (A) (A) (A) (A) (A) (A)
                 (A) (A) (A) (A) (A)
 Requested convergence on RMS density matrix=1.00D-08 within 128 cycles.
 Requested convergence on MAX density matrix=1.00D-06.
 Requested convergence on             energy=1.00D-06.
 No special actions if energy rises.
 SCF Done:  E(RHF) =  -800.694199935     A.U. after   13 cycles
             Convg  =    0.8461D-08             -V/T =  2.0024

 **********************************************************************

            Population analysis using the SCF density.

 **********************************************************************

 Orbital symmetries:
 BldTbl:  Degeneracy threshold= 1.00D-02
       Occupied  (A) (A) (A) (A) (A) (A) (A) (A) (A) (A) (A) (A)
                 (A) (A) (A) (A) (A) (A) (A) (A) (A) (A) (A) (A)
                 (A) (A) (A) (A) (A) (A) (A) (A) (A) (A) (A) (A)
                 (A) (A) (A) (A) (A) (A) (A) (A) (A) (A) (A) (A)
                 (A) (A) (A) (A) (A) (A) (A) (A) (A) (A) (A) (A)
                 (A) (A) (A) (A) (A) (A)
       Virtual   (A) (A) (A) (A) (A) (A) (A) (A) (A) (A) (A) (A)
                 (A) (A) (A) (A) (A) (A) (A) (A) (A) (A) (A) (A)
                 (A) (A) (A) (A) (A) (A) (A) (A) (A) (A) (A) (A)
                 (A) (A) (A) (A) (A) (A) (A) (A) (A) (A) (A) (A)
                 (A) (A) (A) (A) (A) (A) (A) (A) (A) (A) (A) (A)
                 (A) (A) (A) (A) (A) (A) (A) (A) (A) (A) (A) (A)
                 (A) (A) (A) (A) (A) (A) (A) (A) (A) (A) (A) (A)
                 (A) (A) (A) (A) (A) (A) (A) (A) (A) (A) (A) (A)
                 (A) (A) (A) (A) (A) (A) (A) (A) (A) (A) (A) (A)
                 (A) (A) (A) (A) (A) (A) (A) (A) (A) (A) (A) (A)
                 (A) (A) (A) (A) (A) (A) (A) (A) (A) (A) (A) (A)
                 (A) (A) (A) (A) (A) (A) (A) (A) (A) (A) (A) (A)
                 (A) (A) (A) (A) (A) (A) (A) (A) (A) (A) (A) (A)
                 (A) (A) (A) (A) (A) (A) (A) (A) (A) (A) (A) (A)
                 (A) (A) (A) (A) (A) (A) (A) (A) (A) (A) (A) (A)
                 (A) (A) (A) (A) (A) (A) (A) (A) (A) (A) (A) (A)
                 (A) (A) (A) (A) (A) (A) (A) (A) (A) (A) (A) (A)
                 (A) (A) (A) (A) (A) (A) (A) (A) (A) (A) (A) (A)
                 (A) (A) (A) (A) (A) (A) (A) (A) (A) (A) (A) (A)
                 (A) (A) (A) (A) (A)
 The electronic state is 1-A.
 Alpha  occ. eigenvalues --  -20.56493 -20.47221 -20.45469 -15.68625 -15.64031
 Alpha  occ. eigenvalues --  -11.40055 -11.34101 -11.31213 -11.30726 -11.28704
 Alpha  occ. eigenvalues --  -11.28570 -11.28368 -11.26254 -11.25464 -11.25073
 Alpha  occ. eigenvalues --  -11.24694 -11.24492  -1.41943  -1.34778  -1.30700
 Alpha  occ. eigenvalues --   -1.28501  -1.23439  -1.15851  -1.08064  -1.03686
 Alpha  occ. eigenvalues --   -1.01573  -1.00734  -0.97877  -0.93859  -0.86814
 Alpha  occ. eigenvalues --   -0.85256  -0.80561  -0.78590  -0.77148  -0.75005
 Alpha  occ. eigenvalues --   -0.70962  -0.69639  -0.68849  -0.67371  -0.66213
 Alpha  occ. eigenvalues --   -0.65433  -0.63983  -0.63310  -0.62878  -0.60727
 Alpha  occ. eigenvalues --   -0.59473  -0.59381  -0.58678  -0.57890  -0.56765
 Alpha  occ. eigenvalues --   -0.56042  -0.55909  -0.54469  -0.53989  -0.53899
 Alpha  occ. eigenvalues --   -0.52178  -0.51626  -0.49675  -0.48613  -0.46865
 Alpha  occ. eigenvalues --   -0.46293  -0.45479  -0.40967  -0.38209  -0.35881
 Alpha  occ. eigenvalues --   -0.35160
 Alpha virt. eigenvalues --    0.13808   0.17688   0.18681   0.19835   0.21240
 Alpha virt. eigenvalues --    0.22393   0.23056   0.24996   0.25662   0.26411
 Alpha virt. eigenvalues --    0.26895   0.27138   0.27455   0.28235   0.29206
 Alpha virt. eigenvalues --    0.29734   0.30280   0.30519   0.30907   0.31375
 Alpha virt. eigenvalues --    0.31590   0.32355   0.32917   0.33332   0.34388
 Alpha virt. eigenvalues --    0.35225   0.35812   0.37580   0.38699   0.39436
 Alpha virt. eigenvalues --    0.40770   0.41029   0.42500   0.43315   0.44330
 Alpha virt. eigenvalues --    0.45556   0.49012   0.50914   0.56085   0.59166
 Alpha virt. eigenvalues --    0.63527   0.64408   0.66890   0.68976   0.69255
 Alpha virt. eigenvalues --    0.70758   0.71159   0.71560   0.73233   0.73382
 Alpha virt. eigenvalues --    0.74816   0.76438   0.77652   0.82087   0.83116
 Alpha virt. eigenvalues --    0.85214   0.86156   0.87169   0.87778   0.88588
 Alpha virt. eigenvalues --    0.90543   0.90658   0.91741   0.92420   0.93675
 Alpha virt. eigenvalues --    0.95205   0.95617   0.96029   0.97808   0.99107
 Alpha virt. eigenvalues --    0.99645   1.00900   1.03276   1.04119   1.04639
 Alpha virt. eigenvalues --    1.06646   1.07092   1.07827   1.08854   1.09374
 Alpha virt. eigenvalues --    1.09740   1.10017   1.10955   1.11859   1.12464
 Alpha virt. eigenvalues --    1.12925   1.13332   1.14454   1.14712   1.15376
 Alpha virt. eigenvalues --    1.16205   1.16743   1.17619   1.18338   1.19298
 Alpha virt. eigenvalues --    1.20240   1.20869   1.21510   1.21902   1.22474
 Alpha virt. eigenvalues --    1.23868   1.24806   1.26555   1.27934   1.29080
 Alpha virt. eigenvalues --    1.32553   1.33629   1.34558   1.36615   1.37306
 Alpha virt. eigenvalues --    1.40550   1.40871   1.42688   1.44950   1.45258
 Alpha virt. eigenvalues --    1.47014   1.50107   1.54590   1.58571   1.59852
 Alpha virt. eigenvalues --    1.62476   1.63400   1.64269   1.65655   1.66644
 Alpha virt. eigenvalues --    1.69154   1.72061   1.73089   1.77760   1.78779
 Alpha virt. eigenvalues --    1.79520   1.83981   1.85765   1.89581   1.93724
 Alpha virt. eigenvalues --    1.94425   1.96519   1.97426   2.00022   2.01895
 Alpha virt. eigenvalues --    2.03862   2.04854   2.07301   2.08626   2.09231
 Alpha virt. eigenvalues --    2.12497   2.13060   2.15522   2.16812   2.17410
 Alpha virt. eigenvalues --    2.18265   2.19173   2.19573   2.19842   2.21396
 Alpha virt. eigenvalues --    2.21999   2.23435   2.24821   2.25283   2.28098
 Alpha virt. eigenvalues --    2.28521   2.29627   2.30343   2.31617   2.32541
 Alpha virt. eigenvalues --    2.34362   2.35315   2.36145   2.36968   2.38785
 Alpha virt. eigenvalues --    2.39737   2.40534   2.43064   2.45111   2.46965
 Alpha virt. eigenvalues --    2.48746   2.50284   2.50630   2.53571   2.56279
 Alpha virt. eigenvalues --    2.59864   2.60558   2.63850   2.65448   2.66782
 Alpha virt. eigenvalues --    2.68303   2.69561   2.71355   2.71896   2.72284
 Alpha virt. eigenvalues --    2.75983   2.76685   2.81359   2.82440   2.85167
 Alpha virt. eigenvalues --    2.85823   2.89275   2.90876   2.93851   2.94927
 Alpha virt. eigenvalues --    2.95831   3.00436   3.03249   3.05065   3.06879
 Alpha virt. eigenvalues --    3.09544   3.12833   3.15328   3.19434   3.25441
 Alpha virt. eigenvalues --    3.28172   3.32406   3.35714   3.40108   3.52281
 Alpha virt. eigenvalues --    3.57211   4.31938   4.40306   4.40846   4.52814
 Alpha virt. eigenvalues --    4.57198   4.62112   4.63015   4.67959   4.70498
 Alpha virt. eigenvalues --    4.72094   4.76575   4.81988   4.94687   4.94764
 Alpha virt. eigenvalues --    4.98141   5.01702   5.10288
          Condensed to atoms (all electrons):
              1          2          3          4          5          6
     1  C    4.179502  -0.000196  -0.000008  -0.000025   0.000050  -0.002046
     2  C   -0.000196   3.990091   0.000000   0.000000   0.000000   0.000001
     3  C   -0.000008   0.000000   5.106141   0.338763   0.338559  -0.055471
     4  C   -0.000025   0.000000   0.338763   5.095073  -0.058262   0.337476
     5  C    0.000050   0.000000   0.338559  -0.058262   5.112350  -0.004781
     6  C   -0.002046   0.000001  -0.055471   0.337476  -0.004781   5.147151
     7  C   -0.003752   0.000001  -0.054741  -0.004739   0.327765  -0.050952
     8  C   -0.039209   0.000043  -0.005126  -0.047717  -0.046439   0.334570
     9  C   -0.032395   0.000000   0.000000  -0.000001   0.000000   0.000008
    10  C   -0.025288   0.000000  -0.000002  -0.000005   0.000001  -0.003265
    11  C    0.003015   0.282145   0.000001  -0.000001  -0.000045   0.000032
    12  C    0.336666   0.001825  -0.000293   0.003817   0.003976  -0.050361
    13  N    0.320676   0.000001   0.000002   0.000063  -0.000009  -0.000761
    14  N   -0.060209  -0.029713   0.000002  -0.000052  -0.000145   0.002742
    15  O    0.000000   0.553067   0.000000   0.000000   0.000000   0.000000
    16  O    0.531646  -0.000010  -0.000001  -0.000003   0.000179   0.000062
    17  O   -0.000222   0.452143   0.000000   0.000000   0.000000   0.000000
    18  H    0.000000   0.000000   0.404507  -0.036909  -0.036596   0.004400
    19  H   -0.000005   0.000000   0.395982  -0.043262  -0.043302  -0.003124
    20  H    0.000001   0.000000  -0.035592   0.404536   0.004263  -0.038998
    21  H   -0.000001   0.000000  -0.042309   0.398694  -0.002555  -0.044222
    22  H   -0.000001   0.000000  -0.042877  -0.002705   0.395693   0.000571
    23  H    0.000000   0.000000  -0.035596   0.004260   0.405738  -0.000322
    24  H    0.003393   0.000000  -0.002711  -0.036989   0.000214   0.392071
    25  H   -0.000258   0.000000   0.004045  -0.034362  -0.000339   0.402635
    26  H   -0.000859   0.000015   0.004090  -0.000294  -0.036509   0.003868
    27  H    0.004460   0.000000  -0.002705   0.000299  -0.038241  -0.002437
    28  H    0.003968   0.000056  -0.000015  -0.002284  -0.002662  -0.041705
    29  H    0.002683   0.000000   0.000000  -0.000001   0.000000   0.000015
    30  H   -0.004382   0.000000   0.000000   0.000000   0.000000  -0.000001
    31  H   -0.000312   0.000000   0.000000   0.000000   0.000000   0.000000
    32  H    0.000238   0.000000   0.000000   0.000000   0.000000   0.000098
    33  H   -0.002175  -0.000001   0.000001  -0.000018   0.000000  -0.000795
    34  H    0.001039   0.000000   0.000000  -0.000037   0.000000   0.000169
    35  H    0.000040  -0.019020   0.000001   0.000000  -0.000006   0.000010
    36  H   -0.000159  -0.015555   0.000000   0.000001  -0.000001  -0.000001
    37  H   -0.034081   0.000158   0.000000  -0.000047  -0.000045  -0.001866
    38  H   -0.002607  -0.010426   0.000000   0.000000   0.000000  -0.000016
    39  H   -0.006725   0.000450   0.000002   0.000000   0.000013   0.000006
              7          8          9         10         11         12
     1  C   -0.003752  -0.039209  -0.032395  -0.025288   0.003015   0.336666
     2  C    0.000001   0.000043   0.000000   0.000000   0.282145   0.001825
     3  C   -0.054741  -0.005126   0.000000  -0.000002   0.000001  -0.000293
     4  C   -0.004739  -0.047717  -0.000001  -0.000005  -0.000001   0.003817
     5  C    0.327765  -0.046439   0.000000   0.000001  -0.000045   0.003976
     6  C   -0.050952   0.334570   0.000008  -0.003265   0.000032  -0.050361
     7  C    5.150128   0.328156   0.000004  -0.000039   0.000175  -0.054518
     8  C    0.328156   5.186866  -0.000126   0.000868  -0.008148   0.337714
     9  C    0.000004  -0.000126   4.988356  -0.048396   0.000001   0.003364
    10  C   -0.000039   0.000868  -0.048396   4.963058   0.000000  -0.003378
    11  C    0.000175  -0.008148   0.000001   0.000000   5.479529  -0.019966
    12  C   -0.054518   0.337714   0.003364  -0.003378  -0.019966   5.204016
    13  N    0.000226  -0.000473   0.206470   0.213545  -0.000053  -0.089477
    14  N   -0.000558  -0.055124  -0.000087   0.000283   0.055656   0.192004
    15  O    0.000000  -0.000001   0.000000   0.000000  -0.103046  -0.000013
    16  O    0.002290  -0.003443  -0.006123   0.001565   0.000303  -0.082792
    17  O    0.000000  -0.000043   0.000000   0.000000  -0.131469   0.000537
    18  H    0.004266  -0.000193   0.000000   0.000000   0.000000   0.000010
    19  H   -0.002591   0.000055   0.000000   0.000000   0.000000  -0.000051
    20  H   -0.000359   0.004362   0.000000   0.000001   0.000000  -0.000078
    21  H    0.000513  -0.004327   0.000000   0.000000  -0.000003  -0.000157
    22  H   -0.042389  -0.004526   0.000000   0.000000   0.000004  -0.000177
    23  H   -0.038587   0.004293   0.000000   0.000000   0.000000  -0.000077
    24  H   -0.002143  -0.043166  -0.000021  -0.001782  -0.000004  -0.005384
    25  H    0.004009  -0.042759   0.000003  -0.001110  -0.000002  -0.002672
    26  H    0.403140  -0.041257   0.000000   0.000000   0.000067  -0.003305
    27  H    0.394475  -0.039375   0.000047   0.000001  -0.000007  -0.004784
    28  H   -0.042991   0.405376   0.000002   0.000009   0.000842  -0.044857
    29  H    0.000000   0.000015   0.397298  -0.002934   0.000000  -0.000013
    30  H   -0.000004  -0.000010   0.395378   0.002924   0.000000   0.000513
    31  H    0.000000  -0.000003   0.400716  -0.001447   0.000000  -0.000145
    32  H    0.000000  -0.000055  -0.001767   0.401166   0.000000  -0.000057
    33  H    0.000002  -0.000521   0.003353   0.397874   0.000004  -0.000092
    34  H    0.000004   0.000220  -0.001668   0.399585   0.000000  -0.000269
    35  H    0.000185  -0.004171   0.000000   0.000000   0.389607   0.002425
    36  H    0.000159   0.000209   0.000000   0.000000   0.382842  -0.000128
    37  H    0.003538  -0.035622  -0.000108  -0.003896  -0.000255   0.404401
    38  H   -0.000034   0.001195  -0.000005   0.000012  -0.044363  -0.013651
    39  H    0.003155  -0.003294  -0.000007  -0.000033  -0.012529  -0.019084
             13         14         15         16         17         18
     1  C    0.320676  -0.060209   0.000000   0.531646  -0.000222   0.000000
     2  C    0.000001  -0.029713   0.553067  -0.000010   0.452143   0.000000
     3  C    0.000002   0.000002   0.000000  -0.000001   0.000000   0.404507
     4  C    0.000063  -0.000052   0.000000  -0.000003   0.000000  -0.036909
     5  C   -0.000009  -0.000145   0.000000   0.000179   0.000000  -0.036596
     6  C   -0.000761   0.002742   0.000000   0.000062   0.000000   0.004400
     7  C    0.000226  -0.000558   0.000000   0.002290   0.000000   0.004266
     8  C   -0.000473  -0.055124  -0.000001  -0.003443  -0.000043  -0.000193
     9  C    0.206470  -0.000087   0.000000  -0.006123   0.000000   0.000000
    10  C    0.213545   0.000283   0.000000   0.001565   0.000000   0.000000
    11  C   -0.000053   0.055656  -0.103046   0.000303  -0.131469   0.000000
    12  C   -0.089477   0.192004  -0.000013  -0.082792   0.000537   0.000010
    13  N    7.357903   0.000161   0.000000  -0.088364   0.000000   0.000000
    14  N    0.000161   7.389416   0.001565  -0.010549  -0.052100   0.000000
    15  O    0.000000   0.001565   8.295058   0.000000  -0.071476   0.000000
    16  O   -0.088364  -0.010549   0.000000   8.277095   0.000001   0.000000
    17  O    0.000000  -0.052100  -0.071476   0.000001   8.453037   0.000000
    18  H    0.000000   0.000000   0.000000   0.000000   0.000000   0.522453
    19  H    0.000000   0.000000   0.000000  -0.000001   0.000000  -0.026976
    20  H   -0.000001   0.000000   0.000000   0.000000   0.000000  -0.002215
    21  H   -0.000001  -0.000001   0.000000   0.000000   0.000000  -0.003069
    22  H    0.000000   0.000015   0.000000  -0.000002   0.000000  -0.003081
    23  H    0.000000   0.000000   0.000000   0.000001   0.000000  -0.002171
    24  H    0.001714  -0.000052   0.000000  -0.000181   0.000000  -0.000088
    25  H    0.000141  -0.000010   0.000000  -0.000004   0.000000  -0.000080
    26  H   -0.000027  -0.000017   0.000000  -0.000364   0.000002  -0.000084
    27  H   -0.000524   0.000336   0.000000   0.001948   0.000000  -0.000080
    28  H   -0.000122  -0.002572   0.000001  -0.000130   0.000004  -0.000065
    29  H   -0.046372  -0.000001   0.000000   0.000430   0.000000   0.000000
    30  H   -0.028979  -0.000011   0.000000   0.008814   0.000000   0.000000
    31  H   -0.045979   0.000007   0.000000   0.000445   0.000000   0.000000
    32  H   -0.045356   0.000010   0.000000  -0.000008   0.000000   0.000000
    33  H   -0.034175   0.000131   0.000000   0.000022  -0.000002   0.000000
    34  H   -0.049091  -0.000011   0.000000  -0.000016   0.000000   0.000000
    35  H   -0.000008  -0.040137   0.001253  -0.000013   0.001094   0.000000
    36  H    0.000000  -0.031987   0.003018  -0.000001   0.001498   0.000000
    37  H    0.003104  -0.040304  -0.000008   0.002160   0.000819   0.000000
    38  H    0.000069   0.208035   0.002032   0.001971   0.101475   0.000000
    39  H    0.000650   0.290452  -0.000003   0.020385   0.000610   0.000000
             19         20         21         22         23         24
     1  C   -0.000005   0.000001  -0.000001  -0.000001   0.000000   0.003393
     2  C    0.000000   0.000000   0.000000   0.000000   0.000000   0.000000
     3  C    0.395982  -0.035592  -0.042309  -0.042877  -0.035596  -0.002711
     4  C   -0.043262   0.404536   0.398694  -0.002705   0.004260  -0.036989
     5  C   -0.043302   0.004263  -0.002555   0.395693   0.405738   0.000214
     6  C   -0.003124  -0.038998  -0.044222   0.000571  -0.000322   0.392071
     7  C   -0.002591  -0.000359   0.000513  -0.042389  -0.038587  -0.002143
     8  C    0.000055   0.004362  -0.004327  -0.004526   0.004293  -0.043166
     9  C    0.000000   0.000000   0.000000   0.000000   0.000000  -0.000021
    10  C    0.000000   0.000001   0.000000   0.000000   0.000000  -0.001782
    11  C    0.000000   0.000000  -0.000003   0.000004   0.000000  -0.000004
    12  C   -0.000051  -0.000078  -0.000157  -0.000177  -0.000077  -0.005384
    13  N    0.000000  -0.000001  -0.000001   0.000000   0.000000   0.001714
    14  N    0.000000   0.000000  -0.000001   0.000015   0.000000  -0.000052
    15  O    0.000000   0.000000   0.000000   0.000000   0.000000   0.000000
    16  O   -0.000001   0.000000   0.000000  -0.000002   0.000001  -0.000181
    17  O    0.000000   0.000000   0.000000   0.000000   0.000000   0.000000
    18  H   -0.026976  -0.002215  -0.003069  -0.003081  -0.002171  -0.000088
    19  H    0.556800  -0.002962   0.004421   0.004469  -0.002978   0.002812
    20  H   -0.002962   0.524490  -0.026627  -0.000075  -0.000084  -0.003027
    21  H    0.004421  -0.026627   0.548712   0.002694  -0.000078   0.004267
    22  H    0.004469  -0.000075   0.002694   0.553229  -0.026504   0.000080
    23  H   -0.002978  -0.000084  -0.000078  -0.026504   0.517840  -0.000036
    24  H    0.002812  -0.003027   0.004267   0.000080  -0.000036   0.544456
    25  H   -0.000081  -0.002577  -0.002886  -0.000042   0.000011  -0.028661
    26  H   -0.000080   0.000011  -0.000040  -0.002583  -0.002709  -0.000087
    27  H    0.002667  -0.000029   0.000067   0.003997  -0.002756   0.002701
    28  H    0.000101  -0.000053   0.003120   0.003208  -0.000064   0.004417
    29  H    0.000000   0.000000   0.000000   0.000000   0.000000  -0.000056
    30  H    0.000000   0.000000   0.000000   0.000000   0.000000  -0.000007
    31  H    0.000000   0.000000   0.000000   0.000000   0.000000   0.000007
    32  H    0.000000   0.000000   0.000000   0.000000   0.000000   0.000114
    33  H    0.000000   0.000000  -0.000001   0.000000   0.000000  -0.000412
    34  H    0.000000   0.000002   0.000000   0.000000   0.000000  -0.000746
    35  H    0.000000   0.000000  -0.000005  -0.000006   0.000000  -0.000004
    36  H    0.000000   0.000000   0.000000   0.000020   0.000000   0.000000
    37  H    0.000000  -0.000003   0.000009  -0.000001   0.000001   0.000142
    38  H    0.000000   0.000000   0.000000   0.000000   0.000000  -0.000001
    39  H    0.000000   0.000000   0.000000  -0.000002   0.000001   0.000002
             25         26         27         28         29         30
     1  C   -0.000258  -0.000859   0.004460   0.003968   0.002683  -0.004382
     2  C    0.000000   0.000015   0.000000   0.000056   0.000000   0.000000
     3  C    0.004045   0.004090  -0.002705  -0.000015   0.000000   0.000000
     4  C   -0.034362  -0.000294   0.000299  -0.002284  -0.000001   0.000000
     5  C   -0.000339  -0.036509  -0.038241  -0.002662   0.000000   0.000000
     6  C    0.402635   0.003868  -0.002437  -0.041705   0.000015  -0.000001
     7  C    0.004009   0.403140   0.394475  -0.042991   0.000000  -0.000004
     8  C   -0.042759  -0.041257  -0.039375   0.405376   0.000015  -0.000010
     9  C    0.000003   0.000000   0.000047   0.000002   0.397298   0.395378
    10  C   -0.001110   0.000000   0.000001   0.000009  -0.002934   0.002924
    11  C   -0.000002   0.000067  -0.000007   0.000842   0.000000   0.000000
    12  C   -0.002672  -0.003305  -0.004784  -0.044857  -0.000013   0.000513
    13  N    0.000141  -0.000027  -0.000524  -0.000122  -0.046372  -0.028979
    14  N   -0.000010  -0.000017   0.000336  -0.002572  -0.000001  -0.000011
    15  O    0.000000   0.000000   0.000000   0.000001   0.000000   0.000000
    16  O   -0.000004  -0.000364   0.001948  -0.000130   0.000430   0.008814
    17  O    0.000000   0.000002   0.000000   0.000004   0.000000   0.000000
    18  H   -0.000080  -0.000084  -0.000080  -0.000065   0.000000   0.000000
    19  H   -0.000081  -0.000080   0.002667   0.000101   0.000000   0.000000
    20  H   -0.002577   0.000011  -0.000029  -0.000053   0.000000   0.000000
    21  H   -0.002886  -0.000040   0.000067   0.003120   0.000000   0.000000
    22  H   -0.000042  -0.002583   0.003997   0.003208   0.000000   0.000000
    23  H    0.000011  -0.002709  -0.002756  -0.000064   0.000000   0.000000
    24  H   -0.028661  -0.000087   0.002701   0.004417  -0.000056  -0.000007
    25  H    0.539124  -0.000085  -0.000080  -0.002653  -0.000001   0.000000
    26  H   -0.000085   0.540158  -0.024839  -0.002230   0.000000   0.000000
    27  H   -0.000080  -0.024839   0.509119   0.004195   0.000006   0.000039
    28  H   -0.002653  -0.002230   0.004195   0.527292   0.000000   0.000000
    29  H   -0.000001   0.000000   0.000006   0.000000   0.528733  -0.020598
    30  H    0.000000   0.000000   0.000039   0.000000  -0.020598   0.423144
    31  H    0.000000   0.000000  -0.000001   0.000000  -0.036620  -0.021080
    32  H    0.000019   0.000000   0.000000   0.000001  -0.001293  -0.000042
    33  H    0.000861   0.000000   0.000000   0.000025   0.000009  -0.000084
    34  H    0.000165   0.000000   0.000005  -0.000002   0.003575  -0.000001
    35  H    0.000016  -0.000053  -0.000001   0.001637   0.000000   0.000000
    36  H    0.000000   0.000552   0.000002  -0.000618   0.000000   0.000000
    37  H    0.001497  -0.000045  -0.000115  -0.003126  -0.000003  -0.000011
    38  H   -0.000001   0.000053  -0.000008  -0.000104   0.000000  -0.000001
    39  H   -0.000003   0.001239  -0.000208  -0.000099   0.000000  -0.000006
             31         32         33         34         35         36
     1  C   -0.000312   0.000238  -0.002175   0.001039   0.000040  -0.000159
     2  C    0.000000   0.000000  -0.000001   0.000000  -0.019020  -0.015555
     3  C    0.000000   0.000000   0.000001   0.000000   0.000001   0.000000
     4  C    0.000000   0.000000  -0.000018  -0.000037   0.000000   0.000001
     5  C    0.000000   0.000000   0.000000   0.000000  -0.000006  -0.000001
     6  C    0.000000   0.000098  -0.000795   0.000169   0.000010  -0.000001
     7  C    0.000000   0.000000   0.000002   0.000004   0.000185   0.000159
     8  C   -0.000003  -0.000055  -0.000521   0.000220  -0.004171   0.000209
     9  C    0.400716  -0.001767   0.003353  -0.001668   0.000000   0.000000
    10  C   -0.001447   0.401166   0.397874   0.399585   0.000000   0.000000
    11  C    0.000000   0.000000   0.000004   0.000000   0.389607   0.382842
    12  C   -0.000145  -0.000057  -0.000092  -0.000269   0.002425  -0.000128
    13  N   -0.045979  -0.045356  -0.034175  -0.049091  -0.000008   0.000000
    14  N    0.000007   0.000010   0.000131  -0.000011  -0.040137  -0.031987
    15  O    0.000000   0.000000   0.000000   0.000000   0.001253   0.003018
    16  O    0.000445  -0.000008   0.000022  -0.000016  -0.000013  -0.000001
    17  O    0.000000   0.000000  -0.000002   0.000000   0.001094   0.001498
    18  H    0.000000   0.000000   0.000000   0.000000   0.000000   0.000000
    19  H    0.000000   0.000000   0.000000   0.000000   0.000000   0.000000
    20  H    0.000000   0.000000   0.000000   0.000002   0.000000   0.000000
    21  H    0.000000   0.000000  -0.000001   0.000000  -0.000005   0.000000
    22  H    0.000000   0.000000   0.000000   0.000000  -0.000006   0.000020
    23  H    0.000000   0.000000   0.000000   0.000000   0.000000   0.000000
    24  H    0.000007   0.000114  -0.000412  -0.000746  -0.000004   0.000000
    25  H    0.000000   0.000019   0.000861   0.000165   0.000016   0.000000
    26  H    0.000000   0.000000   0.000000   0.000000  -0.000053   0.000552
    27  H   -0.000001   0.000000   0.000000   0.000005  -0.000001   0.000002
    28  H    0.000000   0.000001   0.000025  -0.000002   0.001637  -0.000618
    29  H   -0.036620  -0.001293   0.000009   0.003575   0.000000   0.000000
    30  H   -0.021080  -0.000042  -0.000084  -0.000001   0.000000   0.000000
    31  H    0.515663   0.003721  -0.000058  -0.000717   0.000000   0.000000
    32  H    0.003721   0.503328  -0.023225  -0.036572   0.000000   0.000000
    33  H   -0.000058  -0.023225   0.499602  -0.026064   0.000005   0.000000
    34  H   -0.000717  -0.036572  -0.026064   0.521828   0.000000   0.000000
    35  H    0.000000   0.000000   0.000005   0.000000   0.468301  -0.019656
    36  H    0.000000   0.000000   0.000000   0.000000  -0.019656   0.455409
    37  H    0.000001   0.000077  -0.000404   0.000142   0.000393   0.000131
    38  H    0.000000   0.000002  -0.000006   0.000000   0.001858   0.002791
    39  H    0.000000   0.000001  -0.000008   0.000000   0.001439  -0.002444
             37         38         39
     1  C   -0.034081  -0.002607  -0.006725
     2  C    0.000158  -0.010426   0.000450
     3  C    0.000000   0.000000   0.000002
     4  C   -0.000047   0.000000   0.000000
     5  C   -0.000045   0.000000   0.000013
     6  C   -0.001866  -0.000016   0.000006
     7  C    0.003538  -0.000034   0.003155
     8  C   -0.035622   0.001195  -0.003294
     9  C   -0.000108  -0.000005  -0.000007
    10  C   -0.003896   0.000012  -0.000033
    11  C   -0.000255  -0.044363  -0.012529
    12  C    0.404401  -0.013651  -0.019084
    13  N    0.003104   0.000069   0.000650
    14  N   -0.040304   0.208035   0.290452
    15  O   -0.000008   0.002032  -0.000003
    16  O    0.002160   0.001971   0.020385
    17  O    0.000819   0.101475   0.000610
    18  H    0.000000   0.000000   0.000000
    19  H    0.000000   0.000000   0.000000
    20  H   -0.000003   0.000000   0.000000
    21  H    0.000009   0.000000   0.000000
    22  H   -0.000001   0.000000  -0.000002
    23  H    0.000001   0.000000   0.000001
    24  H    0.000142  -0.000001   0.000002
    25  H    0.001497  -0.000001  -0.000003
    26  H   -0.000045   0.000053   0.001239
    27  H   -0.000115  -0.000008  -0.000208
    28  H   -0.003126  -0.000104  -0.000099
    29  H   -0.000003   0.000000   0.000000
    30  H   -0.000011  -0.000001  -0.000006
    31  H    0.000001   0.000000   0.000000
    32  H    0.000077   0.000002   0.000001
    33  H   -0.000404  -0.000006  -0.000008
    34  H    0.000142   0.000000   0.000000
    35  H    0.000393   0.001858   0.001439
    36  H    0.000131   0.002791  -0.002444
    37  H    0.463600  -0.000136   0.003073
    38  H   -0.000136   0.261588  -0.004482
    39  H    0.003073  -0.004482   0.268601
 Mulliken atomic charges:
              1
     1  C    0.827538
     2  C    0.794922
     3  C   -0.314650
     4  C   -0.315267
     5  C   -0.318865
     6  C   -0.324762
     7  C   -0.323793
     8  C   -0.178813
     9  C   -0.304296
    10  C   -0.289318
    11  C   -0.274334
    12  C   -0.095486
    13  N   -0.674954
    14  N   -0.817176
    15  O   -0.681448
    16  O   -0.657312
    17  O   -0.755907
    18  H    0.175970
    19  H    0.158107
    20  H    0.175013
    21  H    0.163785
    22  H    0.160992
    23  H    0.179817
    24  H    0.169174
    25  H    0.166137
    26  H    0.162272
    27  H    0.191826
    28  H    0.192098
    29  H    0.175127
    30  H    0.244407
    31  H    0.185802
    32  H    0.199602
    33  H    0.186152
    34  H    0.188461
    35  H    0.214817
    36  H    0.223919
    37  H    0.236831
    38  H    0.494761
    39  H    0.458850
 Sum of Mulliken atomic charges =   0.00000
 Mulliken charges with hydrogens summed into heavy atoms:
              1
     1  C    0.827538
     2  C    0.794922
     3  C    0.019427
     4  C    0.023531
     5  C    0.021945
     6  C    0.010549
     7  C    0.030305
     8  C    0.013285
     9  C    0.301039
    10  C    0.284896
    11  C    0.164401
    12  C    0.141345
    13  N   -0.674954
    14  N    0.136436
    15  O   -0.681448
    16  O   -0.657312
    17  O   -0.755907
 Sum of Mulliken charges with hydrogens summed into heavy atoms =   0.00000
 DipInt: DoE/N= T F RetVal/Mat= T F Init=T NMatP=  1 IDeriv=0 Min/MaxMlt=  0  4
 Entering OneElI...
 OneElI was handed    33323122 working-precision words.
 Multipole integrals L=0 to 4 MinM= 0 MaxM= 0.
 Requested accuracy = 0.1000D-12
 PrsmSu:  NPrtUS=   1 ThrOK=F IAlg=1 NPAlg=1 LenDen=           0.
 Prism:   IPart=     0 DynPar=F LinDyn=F Incr=          53.
 PRISM was handed    32893175 working-precision words and  5337 shell-pairs
 IPart=  0 NShTot=        5337 NBatch=          75 AvBLen=        71.2
 PrSmSu:  NxtVal=             54.
 Electronic moments (au):
       -132.00000000         -5.41115801          0.84649671          0.56149992
      -2778.07347588      -1746.18660808       -518.08535328          3.52854264
         -6.16362857          6.34710062      -7228.64005156      -2896.36375789
        -28.76696128       3296.49814441       4858.70389672      -1244.02013156
        867.65100574       -281.49000836        232.52209781        370.66941982
    -137572.98555063     -53570.71758954      -5574.90605140       2867.72278603
      -4678.16001336       3566.19648159       -962.00540037        991.84400178
       -542.74803953     -28843.06036083      -6814.34144676      -7819.18795911
       2484.28118891      -1553.93090350       -849.08787394
 Electronic spatial extent (au):  <R**2>=           5042.3454
 DipInt: DoE/N= F T RetVal/Mat= T F Init=T NMatP=  1 IDeriv=0 Min/MaxMlt=  0  4
 Nuclear    moments (au):
        132.00000000          0.00000000          0.00000000          0.00000000
       2654.49176481       1674.60017142        440.79266628          0.00000000
          0.00000000          0.00000000       6779.88472741       2980.52806938
         38.66816328      -3354.83267994      -4780.47453032       1193.16793261
       -857.54882110        281.22128941       -229.77077706       -354.89221735
     123926.37110734      47855.14677563       3792.47707703      -2191.24855992
       4259.50824213      -3623.88702533        980.96657662       -991.68867973
        601.57082904      25921.77778784       4950.87111464       6522.68416533
      -2352.36003042       1514.71794858        812.10285030
 Total      moments (au):
          0.00000000         -5.41115801          0.84649671          0.56149992
       -123.58171107        -71.58643665        -77.29268700          3.52854264
         -6.16362857          6.34710062       -448.75532415         84.16431150
          9.90120201        -58.33453553         78.22936640        -50.85219895
         10.10218464         -0.26871895          2.75132075         15.77720247
     -13646.61444329      -5715.57081392      -1782.42897437        676.47422610
       -418.65177123        -57.69054374         18.96117625          0.15532205
         58.82278951      -2921.28257299      -1863.47033212      -1296.50379377
        131.92115849        -39.21295491        -36.98502364
 Traceless Quadrup. (au):
        -32.76143283         19.23384159         13.52759124          3.52854264
         -6.16362857          6.34710062
 Charge=              0.0000 electrons
 Dipole moment (field-independent basis, Debye):
    X=            -13.7538    Y=              2.1516    Z=              1.4272  Tot=             13.9940
 Quadrupole moment (field-independent basis, Debye-Ang):
   XX=           -166.2216   YY=            -96.2862   ZZ=           -103.9613
   XY=              4.7460   XZ=             -8.2903   YZ=              8.5371
 Traceless Quadrupole moment (field-independent basis, Debye-Ang):
   XX=            -44.0652   YY=             25.8702   ZZ=             18.1951
   XY=              4.7460   XZ=             -8.2903   YZ=              8.5371
 Octapole moment (field-independent basis, Debye-Ang**2):
  XXX=           -319.4067  YYY=             59.9049  ZZZ=              7.0473  XYY=            -41.5203
  XXY=             55.6806  XXZ=            -36.1946  XZZ=              7.1903  YZZ=             -0.1913
  YYZ=              1.9583  XYZ=             11.2296
 Hexadecapole moment (field-independent basis, Debye-Ang**3):
 XXXX=          -5139.9690 YYYY=          -2152.7579 ZZZZ=           -671.3482 XXXY=            254.7926
 XXXZ=           -157.6843 YYYX=            -21.7290 YYYZ=              7.1417 ZZZX=              0.0585
 ZZZY=             22.1555 XXYY=          -1100.2950 XXZZ=           -701.8722 YYZZ=           -488.3255
 XXYZ=             49.6878 YYXZ=            -14.7695 ZZXY=            -13.9303
 N-N= 1.323223842414D+03 E-N=-4.518407921912D+03  KE= 7.987866228733D+02
 Entering OneElI...
 OneElI was handed    33143046 working-precision words.
 Calculate electrostatic properties
    NBasis =   299  MinDer = 0  MaxDer = 0
    NGrid  =    39  NMatD  =   1
 Requested accuracy = 0.1000D-12
 PrsmSu:  NPrtUS=   2 ThrOK=T IAlg=1 NPAlg=1 LenDen=           0.
 Prism:   IPart=     0 DynPar=F LinDyn=F Incr=         512.
 PRISM was handed    16308841 working-precision words and  4869 shell-pairs
 PRISM was handed    16308841 working-precision words and  4869 shell-pairs
 IPart=  1 NShTot=       94419 NBatch=        2421 AvBLen=        39.0
 IPart=  0 NShTot=       95472 NBatch=        2448 AvBLen=        39.0
 PrSmSu:  NxtVal=           1025.
 --------------------------------------------------------
       Center         ----      EFG at Nuclei      ----
                      3XX-RR        3YY-RR        3ZZ-RR
 --------------------------------------------------------
     1   Atom       -0.375342      0.063983      0.311359
     2   Atom        0.145297      0.304841     -0.450138
     3   Atom       -0.005229      0.017985     -0.012756
     4   Atom        0.001751     -0.017819      0.016068
     5   Atom       -0.006262     -0.019720      0.025982
     6   Atom       -0.010829      0.020402     -0.009573
     7   Atom        0.004158      0.037019     -0.041177
     8   Atom       -0.015183     -0.062576      0.077760
     9   Atom        0.057011     -0.140257      0.083247
    10   Atom        0.143775      0.145698     -0.289473
    11   Atom        0.077387     -0.165134      0.087747
    12   Atom       -0.163536      0.099901      0.063635
    13   Atom        0.654017     -0.169716     -0.484301
    14   Atom       -0.065729      0.142243     -0.076513
    15   Atom        0.243506      0.254925     -0.498432
    16   Atom       -0.176120      1.197172     -1.021052
    17   Atom        1.072846     -1.063411     -0.009435
    18   Atom       -0.000897     -0.139103      0.140000
    19   Atom        0.012751     -0.075429      0.062678
    20   Atom       -0.129014      0.117685      0.011329
    21   Atom        0.050429     -0.099499      0.049070
    22   Atom        0.034374     -0.119775      0.085401
    23   Atom        0.103436      0.118014     -0.221450
    24   Atom        0.036200     -0.120476      0.084276
    25   Atom        0.099881      0.119332     -0.219213
    26   Atom       -0.130161      0.122580      0.007581
    27   Atom        0.051195     -0.101989      0.050794
    28   Atom        0.039092     -0.107204      0.068111
    29   Atom       -0.240728      0.129013      0.111715
    30   Atom        0.153580      0.119517     -0.273097
    31   Atom        0.015842     -0.148375      0.132533
    32   Atom        0.077135     -0.176671      0.099536
    33   Atom        0.071097     -0.099494      0.028397
    34   Atom       -0.259659      0.153886      0.105773
    35   Atom        0.085994      0.109688     -0.195682
    36   Atom        0.153360     -0.113516     -0.039844
    37   Atom        0.109302      0.129125     -0.238427
    38   Atom        0.008313     -0.108393      0.100080
    39   Atom        0.141117      0.171362     -0.312479
 --------------------------------------------------------
                        XY            XZ            YZ
 --------------------------------------------------------
     1   Atom       -0.293921     -0.063451     -0.088694
     2   Atom       -0.079223      0.138938     -0.151907
     3   Atom        0.005908     -0.004549     -0.009575
     4   Atom       -0.032388      0.001312      0.009000
     5   Atom       -0.019646      0.008992     -0.000112
     6   Atom        0.018221      0.028118     -0.014333
     7   Atom       -0.014099     -0.011521     -0.033901
     8   Atom       -0.092260      0.007371      0.011123
     9   Atom        0.129605     -0.094263      0.210023
    10   Atom        0.010464      0.041173     -0.057959
    11   Atom        0.324533     -0.122370      0.174806
    12   Atom        0.173033      0.194008     -0.044642
    13   Atom        0.603716      0.071888     -0.005325
    14   Atom        0.231212      0.107556      0.005891
    15   Atom        1.283381     -0.064881      0.138952
    16   Atom       -0.818020      0.171945     -0.192437
    17   Atom       -0.098558      0.241962      0.143327
    18   Atom       -0.206222      0.022905      0.027684
    19   Atom        0.171251     -0.101047      0.130216
    20   Atom        0.083594      0.192774     -0.063311
    21   Atom        0.147178     -0.095688      0.151420
    22   Atom        0.166017     -0.078817      0.126534
    23   Atom       -0.037219     -0.119818     -0.103231
    24   Atom        0.164800     -0.076720      0.128153
    25   Atom       -0.038898     -0.121223     -0.104130
    26   Atom        0.078204      0.192446     -0.066437
    27   Atom        0.151969     -0.096373      0.143899
    28   Atom        0.148987     -0.087121      0.138724
    29   Atom        0.080358      0.114965     -0.010673
    30   Atom        0.006533      0.004987     -0.085813
    31   Atom       -0.192008     -0.049364     -0.054155
    32   Atom       -0.159281     -0.047490     -0.100297
    33   Atom        0.160117     -0.096389      0.161656
    34   Atom        0.008924      0.104195     -0.002800
    35   Atom       -0.033161      0.147293      0.115611
    36   Atom       -0.012531     -0.026984     -0.214761
    37   Atom       -0.014734     -0.101782     -0.089301
    38   Atom       -0.141859     -0.007866     -0.018705
    39   Atom       -0.004882     -0.091200     -0.047674
 --------------------------------------------------------


 ---------------------------------------------------------------------------------
              Nuclear Quadrupole in Principal Axis System
 ---------------------------------------------------------------------------------

       Atom             a.u.   MegaHertz   Gauss  10(-4) cm-1        Axes

              Baa    -0.5337   -71.613   -25.553   -23.888  0.8847  0.4520  0.1139
     1 C(13)  Bbb     0.1917    25.730     9.181     8.583 -0.4610  0.8121  0.3577
              Bcc     0.3419    45.883    16.372    15.305  0.0692 -0.3689  0.9269
 
              Baa    -0.5027   -67.463   -24.072   -22.503 -0.1876  0.1638  0.9685
     2 C(13)  Bbb     0.1194    16.017     5.715     5.343  0.8852  0.4555  0.0945
              Bcc     0.3834    51.446    18.357    17.160 -0.4257  0.8751 -0.2304
 
              Baa    -0.0163    -2.183    -0.779    -0.728  0.2712  0.2154  0.9381
     3 C(13)  Bbb    -0.0062    -0.832    -0.297    -0.278  0.9310 -0.3061 -0.1988
              Bcc     0.0225     3.015     1.076     1.006  0.2444  0.9273 -0.2836
 
              Baa    -0.0430    -5.765    -2.057    -1.923  0.5839  0.8005 -0.1350
     4 C(13)  Bbb     0.0154     2.066     0.737     0.689  0.3813 -0.1236  0.9161
              Bcc     0.0276     3.698     1.320     1.234  0.7167 -0.5864 -0.3774
 
              Baa    -0.0342    -4.590    -1.638    -1.531  0.5915  0.8016 -0.0869
     5 C(13)  Bbb     0.0052     0.702     0.251     0.234  0.7436 -0.5840 -0.3254
              Bcc     0.0290     3.888     1.387     1.297  0.3116 -0.1279  0.9416
 
              Baa    -0.0463    -6.213    -2.217    -2.073  0.6845 -0.3270 -0.6516
     6 C(13)  Bbb     0.0174     2.339     0.834     0.780  0.6259 -0.1948  0.7552
              Bcc     0.0289     3.875     1.383     1.292  0.3739  0.9247 -0.0713
 
              Baa    -0.0579    -7.765    -2.771    -2.590  0.2486  0.3584  0.8998
     7 C(13)  Bbb     0.0063     0.849     0.303     0.283  0.9478  0.1015 -0.3023
              Bcc     0.0515     6.916     2.468     2.307 -0.1997  0.9280 -0.3145
 
              Baa    -0.1350   -18.111    -6.463    -6.041  0.6114  0.7888 -0.0624
     8 C(13)  Bbb     0.0563     7.559     2.697     2.521  0.7913 -0.6098  0.0444
              Bcc     0.0786    10.552     3.765     3.520  0.0031  0.0765  0.9971
 
              Baa    -0.3320   -44.549   -15.896   -14.860 -0.3799  0.7878 -0.4847
     9 C(13)  Bbb     0.1206    16.187     5.776     5.399  0.9147  0.3981 -0.0700
              Bcc     0.2114    28.362    10.120     9.461 -0.1378  0.4700  0.8719
 
              Baa    -0.3011   -40.399   -14.416   -13.476 -0.0944  0.1303  0.9870
    10 C(13)  Bbb     0.1448    19.433     6.934     6.482  0.8569 -0.4940  0.1472
              Bcc     0.1562    20.967     7.481     6.994  0.5067  0.8597 -0.0650
 
              Baa    -0.4717   -63.298   -22.586   -21.114 -0.5330  0.7674 -0.3564
    11 C(13)  Bbb     0.1691    22.695     8.098     7.570 -0.1981  0.2963  0.9343
              Bcc     0.3026    40.603    14.488    13.544  0.8226  0.5686 -0.0059
 
              Baa    -0.3425   -45.965   -16.402   -15.332  0.8235 -0.3658 -0.4336
    12 C(13)  Bbb     0.1270    17.042     6.081     5.685  0.0815 -0.6801  0.7286
              Bcc     0.2155    28.923    10.321     9.648  0.5614  0.6353  0.5303
 
              Baa    -0.5260   -20.288    -7.239    -6.767 -0.3594  0.6193  0.6981
    13 N(14)  Bbb    -0.4495   -17.336    -6.186    -5.783  0.2992 -0.6321  0.7148
              Bcc     0.9755    37.624    13.425    12.550  0.8839  0.4658  0.0418
 
              Baa    -0.2587    -9.976    -3.560    -3.328  0.7784 -0.4424 -0.4453
    14 N(14)  Bbb    -0.0441    -1.702    -0.607    -0.568  0.2856 -0.3821  0.8789
              Bcc     0.3028    11.678     4.167     3.895  0.5590  0.8113  0.1711
 
              Baa    -1.0705    77.461    27.640    25.838 -0.6837  0.6876 -0.2446
    15 O(17)  Bbb    -0.4635    33.537    11.967    11.187 -0.1914  0.1544  0.9693
              Bcc     1.5340  -110.998   -39.607   -37.025  0.7043  0.7095  0.0260
 
              Baa    -1.0554    76.367    27.250    25.473 -0.1726  0.0214  0.9848
    16 O(17)  Bbb    -0.5464    39.540    14.109    13.189  0.8892  0.4334  0.1465
              Bcc     1.6018  -115.907   -41.359   -38.662 -0.4236  0.9010 -0.0939
 
              Baa    -1.0905    78.908    28.156    26.321  0.0612  0.9876 -0.1446
    17 O(17)  Bbb    -0.0360     2.606     0.930     0.869 -0.1976  0.1540  0.9681
              Bcc     1.1265   -81.514   -29.086   -27.190  0.9784 -0.0306  0.2045
 
              Baa    -0.2905  -154.985   -55.302   -51.697  0.5824  0.8086 -0.0830
    18 H(1)   Bbb     0.1419    75.730    27.022    25.261 -0.2789  0.2947  0.9140
              Bcc     0.1485    79.255    28.280    26.437  0.7635 -0.5092  0.3972
 
              Baa    -0.2861  -152.634   -54.464   -50.913 -0.5540  0.7145 -0.4273
    19 H(1)   Bbb     0.1406    75.004    26.763    25.018 -0.2492  0.3474  0.9040
              Bcc     0.1455    77.631    27.701    25.895  0.7944  0.6073 -0.0144
 
              Baa    -0.2909  -155.195   -55.377   -51.767  0.7922 -0.2485 -0.5574
    20 H(1)   Bbb     0.1415    75.521    26.948    25.191  0.5175  0.7575  0.3979
              Bcc     0.1493    79.674    28.430    26.576  0.3234 -0.6037  0.7287
 
              Baa    -0.2856  -152.365   -54.368   -50.824 -0.4630  0.7503 -0.4719
    21 H(1)   Bbb     0.1397    74.555    26.603    24.869  0.6909  0.6390  0.3381
              Bcc     0.1458    77.810    27.765    25.955 -0.5552  0.1695  0.8142
 
              Baa    -0.2856  -152.396   -54.379   -50.834 -0.4980  0.7829 -0.3728
    22 H(1)   Bbb     0.1399    74.648    26.636    24.900  0.8664  0.4313 -0.2517
              Bcc     0.1457    77.749    27.743    25.934  0.0363  0.4484  0.8931
 
              Baa    -0.2903  -154.905   -55.274   -51.671  0.3035  0.2594  0.9168
    23 H(1)   Bbb     0.1414    75.431    26.916    25.161  0.8166  0.4250 -0.3906
              Bcc     0.1490    79.473    28.358    26.509 -0.4910  0.8672 -0.0829
 
              Baa    -0.2850  -152.059   -54.259   -50.722 -0.4925  0.7854 -0.3749
    24 H(1)   Bbb     0.1385    73.909    26.373    24.653  0.8397  0.3156 -0.4420
              Bcc     0.1465    78.150    27.886    26.068  0.2289  0.5325  0.8149
 
              Baa    -0.2902  -154.828   -55.247   -51.645  0.3101  0.2618  0.9139
    25 H(1)   Bbb     0.1395    74.423    26.556    24.825  0.8661  0.3186 -0.3852
              Bcc     0.1507    80.406    28.691    26.820 -0.3920  0.9110 -0.1280
 
              Baa    -0.2910  -155.240   -55.393   -51.782  0.7907 -0.2400 -0.5631
    26 H(1)   Bbb     0.1362    72.646    25.922    24.232  0.5789  0.5924  0.5604
              Bcc     0.1548    82.594    29.471    27.550 -0.1991  0.7691 -0.6073
 
              Baa    -0.2848  -151.977   -54.229   -50.694 -0.4720  0.7530 -0.4584
    27 H(1)   Bbb     0.1361    72.609    25.909    24.220  0.2743  0.6196  0.7354
              Bcc     0.1488    79.369    28.321    26.475  0.8378  0.2214 -0.4990
 
              Baa    -0.2776  -148.136   -52.859   -49.413 -0.4784  0.7667 -0.4282
    28 H(1)   Bbb     0.1319    70.375    25.112    23.475  0.8392  0.5428  0.0343
              Bcc     0.1457    77.761    27.747    25.938 -0.2587  0.3429  0.9031
 
              Baa    -0.2902  -154.846   -55.253   -51.651  0.9430 -0.1877 -0.2747
    29 H(1)   Bbb     0.1326    70.768    25.252    23.606 -0.0601  0.7159 -0.6956
              Bcc     0.1576    84.079    30.001    28.046  0.3273  0.6725  0.6638
 
              Baa    -0.2911  -155.328   -55.425   -51.812 -0.0140  0.2047  0.9787
    30 H(1)   Bbb     0.1358    72.474    25.861    24.175 -0.2885  0.9364 -0.2000
              Bcc     0.1553    82.854    29.564    27.637  0.9574  0.2851 -0.0460
 
              Baa    -0.2876  -153.437   -54.750   -51.181  0.5466  0.8200  0.1699
    31 H(1)   Bbb     0.1325    70.705    25.229    23.585  0.5569 -0.5075  0.6575
              Bcc     0.1551    82.732    29.521    27.596 -0.6254  0.2647  0.7340
 
              Baa    -0.2854  -152.282   -54.338   -50.796  0.4167  0.8658  0.2770
    32 H(1)   Bbb     0.1315    70.163    25.036    23.404 -0.1494 -0.2353  0.9604
              Bcc     0.1539    82.119    29.302    27.392  0.8967 -0.4415  0.0313
 
              Baa    -0.3026  -161.468   -57.616   -53.860 -0.4469  0.7456 -0.4943
    33 H(1)   Bbb     0.1354    72.243    25.778    24.098 -0.2676  0.4158  0.8692
              Bcc     0.1672    89.225    31.838    29.762  0.8536  0.5207  0.0137
 
              Baa    -0.2875  -153.384   -54.731   -51.163  0.9664 -0.0212 -0.2562
    34 H(1)   Bbb     0.1334    71.168    25.395    23.739  0.2566  0.0203  0.9663
              Bcc     0.1541    82.216    29.337    27.424  0.0153  0.9996 -0.0250
 
              Baa    -0.2940  -156.844   -55.966   -52.318 -0.3680 -0.2838  0.8854
    35 H(1)   Bbb     0.1325    70.702    25.228    23.584 -0.6900  0.7217 -0.0554
              Bcc     0.1615    86.142    30.738    28.734  0.6233  0.6313  0.4614
 
              Baa    -0.2962  -158.037   -56.391   -52.715  0.0599  0.7621  0.6447
    36 H(1)   Bbb     0.1338    71.391    25.474    23.813  0.5083 -0.5792  0.6373
              Bcc     0.1624    86.646    30.917    28.902  0.8591  0.2895 -0.4220
 
              Baa    -0.2856  -152.377   -54.372   -50.827  0.2513  0.2123  0.9443
    37 H(1)   Bbb     0.1321    70.477    25.148    23.509  0.8769 -0.4629 -0.1293
              Bcc     0.1535    81.900    29.224    27.319  0.4097  0.8606 -0.3025
 
              Baa    -0.2047  -109.236   -38.978   -36.437  0.5547  0.8295  0.0652
    38 H(1)   Bbb     0.0984    52.488    18.729    17.508 -0.5387  0.2983  0.7879
              Bcc     0.1064    56.747    20.249    18.929  0.6341 -0.4722  0.6124
 
              Baa    -0.3346  -178.544   -63.709   -59.556  0.1884  0.0939  0.9776
    39 H(1)   Bbb     0.1578    84.179    30.037    28.079  0.9600 -0.2274 -0.1631
              Bcc     0.1769    94.365    33.672    31.477  0.2070  0.9693 -0.1330
 

 ---------------------------------------------------------------------------------

 No NMR shielding tensors so no spin-rotation constants.
 Leave Link  601 at Sun Feb 18 17:09:38 2018, MaxMem=   33554432 cpu:       1.0
 Merz-Kollman atomic radii used.
 Read replacement radii for each type of atom:
 Atom Element Radius
    1     6    1.50
    2     6    1.50
    3     6    1.50
    4     6    1.50
    5     6    1.50
    6     6    1.50
    7     6    1.50
    8     6    1.50
    9     6    1.50
   10     6    1.50
   11     6    1.50
   12     6    1.50
   13     7    1.50
   14     7    1.50
   15     8    1.40
   16     8    1.40
   17     8    1.40
   18     1    1.20
   19     1    1.20
   20     1    1.20
   21     1    1.20
   22     1    1.20
   23     1    1.20
   24     1    1.20
   25     1    1.20
   26     1    1.20
   27     1    1.20
   28     1    1.20
   29     1    1.20
   30     1    1.20
   31     1    1.20
   32     1    1.20
   33     1    1.20
   34     1    1.20
   35     1    1.20
   36     1    1.20
   37     1    1.20
   38     1    1.20
   39     1    1.20
 Generate VDW surfaces: Layer= 4 Dens= 1 Start= 1.400 Inc= 0.200

 **********************************************************************

            Electrostatic Properties Using The SCF Density

 **********************************************************************

       Atomic Center    1 is at  -0.211686  1.524803 -0.517715
       Atomic Center    2 is at   3.826390 -0.749604  0.232684
       Atomic Center    3 is at  -3.363730 -2.238571 -0.146950
       Atomic Center    4 is at  -2.914856 -1.765193  1.242326
       Atomic Center    5 is at  -2.155664 -2.544745 -1.042794
       Atomic Center    6 is at  -1.958268 -0.565326  1.150770
       Atomic Center    7 is at  -1.202702 -1.341681 -1.141489
       Atomic Center    8 is at  -0.740831 -0.885890  0.258550
       Atomic Center    9 is at  -1.342090  3.664992 -0.642745
       Atomic Center   10 is at  -0.957232  2.701527  1.582422
       Atomic Center   11 is at   2.356571 -1.262151  0.058580
       Atomic Center   12 is at   0.282653  0.282402  0.253603
       Atomic Center   13 is at  -0.822874  2.539497  0.136244
       Atomic Center   14 is at   1.557661 -0.099548 -0.450016
       Atomic Center   15 is at   4.670872 -1.604824  0.542504
       Atomic Center   16 is at  -0.038367  1.519451 -1.745813
       Atomic Center   17 is at   3.959227  0.498204  0.050103
       Atomic Center   18 is at  -4.003815 -3.125013 -0.056940
       Atomic Center   19 is at  -3.974794 -1.454634 -0.617740
       Atomic Center   20 is at  -3.783453 -1.494437  1.854832
       Atomic Center   21 is at  -2.408147 -2.590824  1.762479
       Atomic Center   22 is at  -1.609095 -3.407532 -0.635293
       Atomic Center   23 is at  -2.487400 -2.830624 -2.048389
       Atomic Center   24 is at  -2.501102  0.295778  0.737538
       Atomic Center   25 is at  -1.624314 -0.282556  2.156661
       Atomic Center   26 is at  -0.344268 -1.613639 -1.768917
       Atomic Center   27 is at  -1.710170 -0.513178 -1.650378
       Atomic Center   28 is at  -0.220078 -1.732370  0.728163
       Atomic Center   29 is at  -2.374933  3.868313 -0.342133
       Atomic Center   30 is at  -1.306463  3.415181 -1.700825
       Atomic Center   31 is at  -0.739751  4.562160 -0.457770
       Atomic Center   32 is at  -0.497730  3.649647  1.882911
       Atomic Center   33 is at  -0.473107  1.898067  2.130941
       Atomic Center   34 is at  -2.016208  2.724684  1.861405
       Atomic Center   35 is at   1.963329 -1.578791  1.026071
       Atomic Center   36 is at   2.297415 -2.097759 -0.638325
       Atomic Center   37 is at   0.578784  0.504789  1.278999
       Atomic Center   38 is at   2.300164  0.657100 -0.352997
       Atomic Center   39 is at   1.346448 -0.160045 -1.451687
      ESP Fit Center   40 is at   1.318262  2.508041  0.532285
      ESP Fit Center   41 is at   1.647771  2.500721 -0.517715
      ESP Fit Center   42 is at   3.826390 -0.749604  2.332684
      ESP Fit Center   43 is at   4.351390  0.159723  2.051338
      ESP Fit Center   44 is at   3.301390  0.159723  2.051338
      ESP Fit Center   45 is at   3.301390 -1.658930  2.051338
      ESP Fit Center   46 is at   4.876390 -0.749604 -1.585969
      ESP Fit Center   47 is at   4.351390 -1.658930 -1.585969
      ESP Fit Center   48 is at   3.826390 -0.749604 -1.867316
[...]
  748 Fit      -0.030149
  749 Fit      -0.045859
  750 Fit      -0.059889
  751 Fit      -0.073550
  752 Fit      -0.076562
  753 Fit      -0.032354
  754 Fit      -0.051962
  755 Fit      -0.062401
  756 Fit      -0.068785
  757 Fit      -0.077161
  758 Fit      -0.082378
  759 Fit      -0.048186
  760 Fit      -0.059943
  761 Fit      -0.066778
  762 Fit      -0.072124
  763 Fit      -0.076939
  764 Fit      -0.083341
  765 Fit      -0.044538
  766 Fit      -0.058157
  767 Fit      -0.065799
  768 Fit      -0.071537
  769 Fit      -0.072168
  770 Fit      -0.078977
  771 Fit      -0.042782
  772 Fit      -0.057835
  773 Fit      -0.066122
  774 Fit      -0.060896
  775 Fit      -0.051383
  776 Fit      -0.015129
  777 Fit      -0.012314
  778 Fit       0.012342
  779 Fit      -0.012313
  780 Fit      -0.019104
  781 Fit      -0.015797
  782 Fit      -0.001095
  783 Fit      -0.001476
  784 Fit      -0.016092
  785 Fit      -0.018445
  786 Fit      -0.013676
  787 Fit      -0.011689
  788 Fit      -0.009822
  789 Fit      -0.008781
  790 Fit      -0.016022
  791 Fit      -0.066176
  792 Fit      -0.051513
  793 Fit      -0.027652
  794 Fit      -0.083052
  795 Fit      -0.068631
  796 Fit      -0.054871
  797 Fit      -0.035640
  798 Fit      -0.005773
  799 Fit      -0.087804
  800 Fit      -0.074545
  801 Fit      -0.063499
  802 Fit      -0.049838
  803 Fit      -0.029939
  804 Fit      -0.081832
  805 Fit      -0.072226
  806 Fit      -0.062411
  807 Fit      -0.049568
  808 Fit      -0.030439
  809 Fit      -0.069450
  810 Fit      -0.063448
  811 Fit      -0.052906
  812 Fit      -0.036162
  813 Fit      -0.052818
  814 Fit      -0.046841
  815 Fit      -0.025309
  816 Fit      -0.029797
  817 Fit       0.018798
  818 Fit       0.018801
  819 Fit       0.017748
  820 Fit       0.017712
  821 Fit       0.017943
  822 Fit       0.019487
  823 Fit       0.016538
  824 Fit       0.016564
  825 Fit       0.016932
  826 Fit       0.017099
  827 Fit       0.017382
  828 Fit       0.015782
  829 Fit       0.016321
  830 Fit       0.016610
  831 Fit       0.016757
  832 Fit       0.025858
  833 Fit       0.021361
  834 Fit       0.027130
  835 Fit       0.022630
  836 Fit       0.019112
  837 Fit       0.016554
  838 Fit       0.024717
  839 Fit       0.021574
  840 Fit       0.018580
  841 Fit       0.016252
  842 Fit       0.020240
  843 Fit       0.017835
  844 Fit       0.021976
  845 Fit       0.027575
  846 Fit       0.024650
  847 Fit       0.021425
  848 Fit       0.019142
  849 Fit       0.029743
  850 Fit       0.025605
  851 Fit       0.022583
  852 Fit       0.020314
  853 Fit       0.018649
  854 Fit       0.030069
  855 Fit       0.025355
  856 Fit       0.022310
  857 Fit       0.020312
  858 Fit       0.019499
  859 Fit       0.027144
  860 Fit       0.022618
  861 Fit       0.020900
  862 Fit       0.024307
  863 Fit       0.018312
  864 Fit       0.020138
  865 Fit       0.030396
  866 Fit       0.017810
  867 Fit       0.018541
  868 Fit       0.020155
  869 Fit       0.023577
  870 Fit       0.019465
  871 Fit       0.020401
  872 Fit       0.022942
  873 Fit       0.024375
  874 Fit       0.018423
  875 Fit       0.018771
  876 Fit       0.022063
  877 Fit       0.030400
  878 Fit       0.015931
  879 Fit       0.015545
  880 Fit       0.016431
  881 Fit       0.020108
  882 Fit       0.013947
  883 Fit       0.014515
  884 Fit       0.017685
  885 Fit       0.016882
  886 Fit       0.015220
  887 Fit       0.018853
  888 Fit       0.017601
  889 Fit       0.016638
  890 Fit       0.015668
  891 Fit       0.014508
  892 Fit       0.014113
  893 Fit       0.016126
  894 Fit       0.016184
  895 Fit       0.015843
  896 Fit       0.016416
  897 Fit       0.016380
  898 Fit       0.015559
  899 Fit       0.015066
  900 Fit       0.015689
  901 Fit       0.031834
  902 Fit       0.034838
  903 Fit       0.030573
  904 Fit       0.033020
  905 Fit       0.030547
  906 Fit       0.030247
  907 Fit       0.030375
  908 Fit       0.034315
  909 Fit       0.038160
  910 Fit       0.033666
  911 Fit       0.028810
  912 Fit       0.026881
  913 Fit       0.029004
  914 Fit       0.036206
  915 Fit       0.030956
  916 Fit       0.035880
  917 Fit       0.026937
  918 Fit       0.020868
  919 Fit       0.026259
  920 Fit       0.021050
  921 Fit       0.012056
  922 Fit       0.017837
  923 Fit       0.018682
  924 Fit       0.014776
  925 Fit       0.026066
  926 Fit       0.015406
  927 Fit       0.019982
  928 Fit       0.007222
  929 Fit       0.015029
  930 Fit       0.008999
  931 Fit       0.030164
  932 Fit       0.028963
  933 Fit       0.026341
  934 Fit       0.027356
  935 Fit       0.025457
  936 Fit       0.030407
  937 Fit       0.034972
  938 Fit       0.029029
  939 Fit       0.029418
  940 Fit       0.031454
  941 Fit       0.034896
  942 Fit       0.025965
  943 Fit       0.026584
  944 Fit       0.027844
  945 Fit       0.029486
  946 Fit       0.031909
  947 Fit       0.024304
  948 Fit       0.024719
  949 Fit       0.025317
  950 Fit       0.003452
  951 Fit       0.013034
  952 Fit       0.020174
  953 Fit       0.019851
  954 Fit       0.017559
  955 Fit       0.010112
  956 Fit      -0.006928
  957 Fit       0.007861
  958 Fit       0.013843
  959 Fit       0.012925
  960 Fit       0.001719
  961 Fit       0.004527
  962 Fit       0.022802
  963 Fit       0.022350
  964 Fit       0.023783
  965 Fit       0.025473
  966 Fit       0.028289
  967 Fit       0.012638
  968 Fit       0.015261
  969 Fit       0.018434
  970 Fit       0.020909
  971 Fit       0.023162
  972 Fit       0.006830
  973 Fit       0.012176
  974 Fit       0.016419
  975 Fit       0.019718
  976 Fit       0.013963
  977 Fit       0.027056
  978 Fit       0.026679
  979 Fit       0.029714
  980 Fit       0.022662
  981 Fit       0.022761
  982 Fit       0.025519
  983 Fit       0.028130
  984 Fit       0.030886
  985 Fit       0.020114
  986 Fit       0.020885
  987 Fit       0.024820
  988 Fit       0.028353
  989 Fit       0.030883
  990 Fit       0.024135
  991 Fit       0.034464
  992 Fit       0.031609
  993 Fit       0.039295
  994 Fit       0.037402
  995 Fit       0.029634
  996 Fit       0.032529
  997 Fit       0.033091
  998 Fit       0.035807
  999 Fit       0.032315
 1000 Fit       0.032999
 1001 Fit       0.034171
 1002 Fit       0.035976
 1003 Fit       0.034847
 1004 Fit       0.034688
 1005 Fit       0.034823
 1006 Fit       0.035643
 1007 Fit       0.038153
 1008 Fit       0.015443
 1009 Fit      -0.010525
 1010 Fit       0.009158
 1011 Fit       0.034160
 1012 Fit       0.019977
 1013 Fit       0.000233
 1014 Fit       0.012418
 1015 Fit      -0.009689
 1016 Fit       0.021404
 1017 Fit       0.007441
 1018 Fit       0.028425
 1019 Fit       0.016025
 1020 Fit       0.001387
 1021 Fit      -0.021344
 1022 Fit       0.025196
 1023 Fit       0.013269
 1024 Fit      -0.001123
 1025 Fit      -0.019141
 1026 Fit       0.001866
 1027 Fit       0.022176
 1028 Fit       0.008038
 1029 Fit       0.022662
 1030 Fit       0.042946
 1031 Fit       0.028873
 1032 Fit       0.035973
 1033 Fit       0.012692
 1034 Fit       0.018414
 1035 Fit       0.029119
 1036 Fit       0.019970
 1037 Fit      -0.003556
 1038 Fit      -0.022015
 1039 Fit      -0.011146
 1040 Fit       0.013903
 1041 Fit       0.001151
 1042 Fit       0.025368
 1043 Fit       0.013616
 1044 Fit       0.000105
 1045 Fit      -0.027464
 1046 Fit      -0.038186
 1047 Fit      -0.014245
 1048 Fit      -0.018682
 1049 Fit      -0.062064
 1050 Fit      -0.053161
 1051 Fit      -0.033846
 1052 Fit      -0.020926
 1053 Fit      -0.010679
 1054 Fit       0.017803
 1055 Fit       0.014893
 1056 Fit       0.015495
 1057 Fit       0.021446
 1058 Fit       0.024561
 1059 Fit       0.018338
 1060 Fit       0.017167
 1061 Fit       0.016934
 1062 Fit       0.016095
 1063 Fit       0.014089
 1064 Fit       0.012935
 1065 Fit       0.014701
 1066 Fit       0.016264
 1067 Fit       0.031142
 1068 Fit       0.004422
 1069 Fit       0.014084
 1070 Fit       0.011529
 1071 Fit       0.023391
 1072 Fit       0.020992
 1073 Fit       0.022517
 1074 Fit       0.026842
 1075 Fit       0.003714
 1076 Fit       0.017885
 1077 Fit       0.019507
 1078 Fit       0.020838
 1079 Fit       0.021190
 1080 Fit       0.020250
 1081 Fit       0.011687
 1082 Fit       0.015662
 1083 Fit       0.017721
 1084 Fit       0.029638
 1085 Fit       0.028148
 1086 Fit       0.027365
 1087 Fit       0.028783
 1088 Fit       0.030819
 1089 Fit       0.032904
 1090 Fit       0.025502
 1091 Fit       0.029438
 1092 Fit       0.021369
 1093 Fit       0.029415
 1094 Fit       0.016877
 1095 Fit       0.031277
 1096 Fit       0.015649
 1097 Fit      -0.023424
 1098 Fit       0.012404
 1099 Fit      -0.006433
 1100 Fit       0.002675
 1101 Fit       0.012277
 1102 Fit      -0.006572
 1103 Fit      -0.010524
 1104 Fit      -0.044122
 1105 Fit      -0.055385
 1106 Fit      -0.052246
 1107 Fit      -0.026104
 1108 Fit      -0.038007
 1109 Fit      -0.050113
 1110 Fit      -0.062389
 1111 Fit      -0.064303
 1112 Fit      -0.063908
 1113 Fit      -0.032897
 1114 Fit      -0.045852
 1115 Fit      -0.053740
 1116 Fit      -0.058869
 1117 Fit      -0.066335
 1118 Fit      -0.070101
 1119 Fit      -0.075503
 1120 Fit      -0.028354
 1121 Fit      -0.043363
 1122 Fit      -0.052251
 1123 Fit      -0.057998
 1124 Fit      -0.062444
 1125 Fit      -0.067609
 1126 Fit      -0.072174
 1127 Fit      -0.080191
 1128 Fit      -0.035553
 1129 Fit      -0.047189
 1130 Fit      -0.054341
 1131 Fit      -0.059364
 1132 Fit      -0.063584
 1133 Fit      -0.066063
 1134 Fit      -0.071608
 1135 Fit      -0.038595
 1136 Fit      -0.049624
 1137 Fit      -0.056417
 1138 Fit      -0.061485
 1139 Fit      -0.061029
 1140 Fit      -0.066302
 1141 Fit      -0.037868
 1142 Fit      -0.049160
 1143 Fit      -0.056026
 1144 Fit      -0.050978
 1145 Fit      -0.042219
 1146 Fit      -0.007764
 1147 Fit      -0.008952
 1148 Fit      -0.015487
 1149 Fit      -0.012784
 1150 Fit      -0.005546
 1151 Fit      -0.011156
 1152 Fit      -0.015661
 1153 Fit      -0.013470
 1154 Fit      -0.000818
 1155 Fit      -0.012467
 1156 Fit      -0.013926
 1157 Fit      -0.009935
 1158 Fit      -0.007939
 1159 Fit      -0.006506
 1160 Fit      -0.006601
 1161 Fit      -0.011616
 1162 Fit      -0.042212
 1163 Fit      -0.021499
 1164 Fit      -0.070923
 1165 Fit      -0.058793
 1166 Fit      -0.047466
 1167 Fit      -0.032774
 1168 Fit      -0.011809
 1169 Fit      -0.077802
 1170 Fit      -0.065170
 1171 Fit      -0.055320
 1172 Fit      -0.043934
 1173 Fit      -0.028342
 1174 Fit      -0.004577
 1175 Fit      -0.076252
 1176 Fit      -0.066152
 1177 Fit      -0.057955
 1178 Fit      -0.048741
 1179 Fit      -0.036855
 1180 Fit      -0.019729
 1181 Fit      -0.068665
 1182 Fit      -0.061357
 1183 Fit      -0.053647
 1184 Fit      -0.043780
 1185 Fit      -0.030151
 1186 Fit      -0.057443
 1187 Fit      -0.053112
 1188 Fit      -0.045488
 1189 Fit      -0.034110
 1190 Fit      -0.043237
 1191 Fit      -0.038185
 1192 Fit      -0.021307
 1193 Fit      -0.024341
 1194 Fit       0.017090
 1195 Fit       0.016641
 1196 Fit       0.016925
 1197 Fit       0.018831
 1198 Fit       0.016210
 1199 Fit       0.015866
 1200 Fit       0.015845
 1201 Fit       0.015965
 1202 Fit       0.016713
 1203 Fit       0.015194
 1204 Fit       0.015156
 1205 Fit       0.015288
 1206 Fit       0.015420
 1207 Fit       0.015929
 1208 Fit       0.014820
 1209 Fit       0.015034
 1210 Fit       0.015387
 1211 Fit       0.024155
 1212 Fit       0.020274
 1213 Fit       0.017615
 1214 Fit       0.025757
 1215 Fit       0.021935
 1216 Fit       0.018859
 1217 Fit       0.016525
 1218 Fit       0.022037
 1219 Fit       0.019608
 1220 Fit       0.017276
 1221 Fit       0.015660
 1222 Fit       0.018604
 1223 Fit       0.016907
 1224 Fit       0.020925
 1225 Fit       0.025805
 1226 Fit       0.023046
 1227 Fit       0.020054
 1228 Fit       0.018342
 1229 Fit       0.027945
 1230 Fit       0.023888
 1231 Fit       0.020971
 1232 Fit       0.018923
 1233 Fit       0.017581
 1234 Fit       0.025343
 1235 Fit       0.022002
 1236 Fit       0.019803
 1237 Fit       0.018412
 1238 Fit       0.017852
 1239 Fit       0.026161
 1240 Fit       0.022258
 1241 Fit       0.019829
 1242 Fit       0.019905
 1243 Fit       0.022309
 1244 Fit       0.017399
 1245 Fit       0.018601
 1246 Fit       0.026582
 1247 Fit       0.016730
 1248 Fit       0.016961
 1249 Fit       0.018080
 1250 Fit       0.020845
 1251 Fit       0.017533
 1252 Fit       0.017434
 1253 Fit       0.018191
 1254 Fit       0.020171
 1255 Fit       0.025195
 1256 Fit       0.019282
 1257 Fit       0.018033
 1258 Fit       0.018061
 1259 Fit       0.021230
 1260 Fit       0.015437
 1261 Fit       0.014927
 1262 Fit       0.015618
 1263 Fit       0.019276
 1264 Fit       0.013746
 1265 Fit       0.013377
 1266 Fit       0.014207
 1267 Fit       0.018053
 1268 Fit       0.013262
 1269 Fit       0.016119
 1270 Fit       0.015667
 1271 Fit       0.014702
 1272 Fit       0.013539
 1273 Fit       0.016702
 1274 Fit       0.015987
 1275 Fit       0.015140
 1276 Fit       0.014263
 1277 Fit       0.013360
 1278 Fit       0.013109
 1279 Fit       0.014636
 1280 Fit       0.014404
 1281 Fit       0.014117
 1282 Fit       0.014691
 1283 Fit       0.014704
 1284 Fit       0.013996
 1285 Fit       0.013633
 1286 Fit       0.014042
 1287 Fit       0.030707
 1288 Fit       0.034464
 1289 Fit       0.029687
 1290 Fit       0.030128
 1291 Fit       0.027877
 1292 Fit       0.030463
 1293 Fit       0.033772
 1294 Fit       0.030874
 1295 Fit       0.026910
 1296 Fit       0.025132
 1297 Fit       0.026463
 1298 Fit       0.036663
 1299 Fit       0.033475
 1300 Fit       0.028956
 1301 Fit       0.027316
 1302 Fit       0.030688
 1303 Fit       0.022174
 1304 Fit       0.017634
 1305 Fit       0.020654
 1306 Fit       0.016564
 1307 Fit       0.009648
 1308 Fit       0.015743
 1309 Fit       0.015888
 1310 Fit       0.012832
 1311 Fit       0.019656
 1312 Fit       0.022275
 1313 Fit       0.012278
 1314 Fit       0.016883
 1315 Fit       0.006278
 1316 Fit       0.013083
 1317 Fit       0.008198
 1318 Fit       0.027299
 1319 Fit       0.023315
 1320 Fit       0.022834
 1321 Fit       0.028422
 1322 Fit       0.028461
 1323 Fit       0.030540
 1324 Fit       0.024946
 1325 Fit       0.025124
 1326 Fit       0.026262
 1327 Fit       0.028051
 1328 Fit       0.030794
 1329 Fit       0.023091
 1330 Fit       0.023793
 1331 Fit       0.024882
 1332 Fit       0.026450
 1333 Fit       0.021735
 1334 Fit       0.021967
 1335 Fit       0.022465
 1336 Fit       0.001488
 1337 Fit       0.009995
 1338 Fit       0.014657
 1339 Fit       0.016685
 1340 Fit       0.016679
 1341 Fit       0.014592
 1342 Fit       0.007724
 1343 Fit      -0.005757
 1344 Fit       0.005830
 1345 Fit       0.011087
 1346 Fit       0.010388
 1347 Fit       0.001381
 1348 Fit       0.003271
 1349 Fit       0.022449
 1350 Fit       0.023192
 1351 Fit       0.024827
 1352 Fit       0.013189
 1353 Fit       0.014683
 1354 Fit       0.017242
 1355 Fit       0.019478
 1356 Fit       0.021546
 1357 Fit       0.006687
 1358 Fit       0.010338
 1359 Fit       0.013980
 1360 Fit       0.016848
 1361 Fit       0.019320
 1362 Fit       0.009180
 1363 Fit       0.013536
 1364 Fit       0.017025
 1365 Fit       0.024751
 1366 Fit       0.024241
 1367 Fit       0.027163
 1368 Fit       0.020516
 1369 Fit       0.020320
 1370 Fit       0.022683
 1371 Fit       0.025258
 1372 Fit       0.028179
 1373 Fit       0.016602
 1374 Fit       0.017411
 1375 Fit       0.020693
 1376 Fit       0.023868
 1377 Fit       0.026458
 1378 Fit       0.029195
 1379 Fit       0.017209
 1380 Fit       0.021863
 1381 Fit       0.030986
 1382 Fit       0.028020
 1383 Fit       0.034849
 1384 Fit       0.032537
 1385 Fit       0.025034
 1386 Fit       0.032269
 1387 Fit       0.030018
 1388 Fit       0.030499
 1389 Fit       0.033126
 1390 Fit       0.029500
 1391 Fit       0.030027
 1392 Fit       0.031265
 1393 Fit       0.033485
 1394 Fit       0.030642
 1395 Fit       0.030869
 1396 Fit       0.031573
 1397 Fit       0.033047
 1398 Fit       0.033805
 1399 Fit       0.033497
 1400 Fit       0.012763
 1401 Fit      -0.009001
 1402 Fit       0.007179
 1403 Fit       0.028817
 1404 Fit       0.029134
 1405 Fit       0.016745
 1406 Fit      -0.000216
 1407 Fit       0.010044
 1408 Fit      -0.009081
 1409 Fit       0.013375
 1410 Fit      -0.004833
 1411 Fit       0.022496
 1412 Fit       0.009273
 1413 Fit      -0.007137
 1414 Fit       0.021984
 1415 Fit       0.011198
 1416 Fit      -0.001794
 1417 Fit      -0.020409
 1418 Fit       0.011619
 1419 Fit      -0.000677
 1420 Fit      -0.014535
 1421 Fit       0.001794
 1422 Fit       0.019146
 1423 Fit       0.006891
 1424 Fit       0.018945
 1425 Fit       0.025452
 1426 Fit       0.031256
 1427 Fit       0.010276
 1428 Fit       0.016334
 1429 Fit       0.018403
 1430 Fit      -0.013005
 1431 Fit      -0.020437
 1432 Fit       0.000996
 1433 Fit      -0.004396
 1434 Fit       0.012964
 1435 Fit       0.009078
 1436 Fit       0.018672
 1437 Fit       0.009310
 -----------------------------------------------------------------
 Leave Link  602 at Sun Feb 18 17:09:38 2018, MaxMem=   33554432 cpu:       1.1

 Test job not archived.
 1\1\GINC-NODE093\SP\RHF\6-31G(d)\C12H22N2O3\WULSDORT\18-Feb-2018\0\\#H
 F/6-31G* Geom=AllCheck Guess=Read Pop=(MK,ReadRadii) Integral=(Grid=Ul
 traFine) iop(6/33=2)\\Optimization for frag37-conf0\\0,1\C,0,2.9830169
 586,-4.9744731449,-2.4933624373\C,0,6.4207643763,-2.2975473926,-0.7446
 36172\C,0,-0.852845772,-1.9749075468,-1.7690744765\C,0,-0.0469389165,-
 1.5407289787,-3.0010112549\C,0,0.0523727679,-2.1108610776,-0.537084051
 1\C,0,1.1350850046,-2.4867297291,-3.2675138234\C,0,1.2303563459,-3.063
 8457139,-0.8005476961\C,0,2.0464430809,-2.6079257323,-2.0282767621\C,0
 ,2.3991583641,-6.911708051,-3.8275615444\C,0,2.9571562663,-4.833339323
 5,-5.0094117755\C,0,4.8653326636,-2.1147097454,-0.7688880485\C,0,3.301
 0207145,-3.4729347759,-2.3286846326\N,0,2.7704679004,-5.4995581039,-3.
 7221527994\N,0,4.2883051715,-3.4322482677,-1.1928040878\O,0,7.07736173
 55,-1.3399072501,-0.306063926\O,0,2.912706284,-5.6432462438,-1.4512050
 253\O,0,6.813075155,-3.4128737318,-1.2030532541\H,0,-1.6584385328,-1.2
 570794012,-1.5707490764\H,0,-1.3351521575,-2.9420426031,-1.9731058831\
 H,0,-0.6916132732,-1.5023279309,-3.8874953628\H,0,0.3354150872,-0.5215
 865755,-2.8456605573\H,0,0.4422457101,-1.1206399309,-0.2602143556\H,0,
 -0.5237841788,-2.4724350801,0.3233249895\H,0,0.7472689527,-3.478429527
 3,-3.5378098374\H,0,1.7126602238,-2.1222224736,-4.1259091121\H,0,1.862
 2261989,-3.1106122474,0.0956047944\H,0,0.8501179967,-4.0790947677,-0.9
 666720652\H,0,2.4275114472,-1.5986907936,-1.817370839\H,0,1.5225124523
 ,-7.0087709636,-4.4760545197\H,0,2.1712959976,-7.2972582823,-2.8362809
 167\H,0,3.2238015927,-7.4875175825,-4.2638463344\H,0,3.6801523421,-5.3
 998101357,-5.6067014724\H,0,3.3287651847,-3.8186461943,-4.8949383285\H
 ,0,2.0081065973,-4.7969855181,-5.5551061043\H,0,4.5991164172,-1.348720
 298,-1.4991805916\H,0,4.4749191623,-1.8250504594,0.2063512003\H,0,3.83
 17671065,-3.0514662971,-3.1826511571\H,0,5.1957193796,-3.9285663034,-1
 .4448111317\H,0,3.8819012341,-3.9653149163,-0.4167291012\\Version=AM64
 L-G09RevC.01\State=1-A\HF=-800.6941999\RMSD=8.461e-09\Dipole=-4.838596
 9,-0.8979591,-2.4686271\Quadrupole=-28.096245,9.8815764,18.2146686,-11
 .5638231,-12.529507,1.9314915\PG=C01 [X(C12H22N2O3)]\\@


 I am not a vegetarian because I love animals;
 I am a vegetarian because I hate plants.
                               -- A. Whitney Brown
 Job cpu time:  0 days  0 hours  6 minutes 34.3 seconds.
 File lengths (MBytes):  RWF=     51 Int=      0 D2E=      0 Chk=     17 Scr=      1
 Normal termination of Gaussian 09 at Sun Feb 18 17:09:38 2018.
