 Entering Gaussian System, Link 0=g09
 Initial command:
 /home/fb_chem/chemsoft/lx24-amd64/Gaussian_09_C.01_NBO_3.1_64_istanbul-64/g09/l1.exe /local/2399802.1.parallel_long/Gau-19478.inp -scrdir=/local/2399802.1.parallel_long/
 Entering Link 1 = /home/fb_chem/chemsoft/lx24-amd64/Gaussian_09_C.01_NBO_3.1_64_istanbul-64/g09/l1.exe PID=     19479.
  
 Copyright (c) 1988,1990,1992,1993,1995,1998,2003,2009,2011,
            Gaussian, Inc.  All Rights Reserved.
  
 This is part of the Gaussian(R) 09 program.  It is based on
 the Gaussian(R) 03 system (copyright 2003, Gaussian, Inc.),
 the Gaussian(R) 98 system (copyright 1998, Gaussian, Inc.),
 the Gaussian(R) 94 system (copyright 1995, Gaussian, Inc.),
 the Gaussian 92(TM) system (copyright 1992, Gaussian, Inc.),
 the Gaussian 90(TM) system (copyright 1990, Gaussian, Inc.),
 the Gaussian 88(TM) system (copyright 1988, Gaussian, Inc.),
 the Gaussian 86(TM) system (copyright 1986, Carnegie Mellon
 University), and the Gaussian 82(TM) system (copyright 1983,
 Carnegie Mellon University). Gaussian is a federally registered
 trademark of Gaussian, Inc.
  
 This software contains proprietary and confidential information,
 including trade secrets, belonging to Gaussian, Inc.
  
 This software is provided under written license and may be
 used, copied, transmitted, or stored only in accord with that
 written license.
  
 The following legend is applicable only to US Government
 contracts under FAR:
  
                    RESTRICTED RIGHTS LEGEND
  
 Use, reproduction and disclosure by the US Government is
 subject to restrictions as set forth in subparagraphs (a)
 and (c) of the Commercial Computer Software - Restricted
 Rights clause in FAR 52.227-19.
  
 Gaussian, Inc.
 340 Quinnipiac St., Bldg. 40, Wallingford CT 06492
  
  
 ---------------------------------------------------------------
 Warning -- This program may not be used in any manner that
 competes with the business of Gaussian, Inc. or will provide
 assistance to any competitor of Gaussian, Inc.  The licensee
 of this program is prohibited from giving any competitor of
 Gaussian, Inc. access to this program.  By using this program,
 the user acknowledges that Gaussian, Inc. is engaged in the
 business of creating and licensing software in the field of
 computational chemistry and represents and warrants to the
 licensee that it is not a competitor of Gaussian, Inc. and that
 it will not use this program in any manner prohibited above.
 ---------------------------------------------------------------
  

 Cite this work as:
 Gaussian 09, Revision C.01,
 M. J. Frisch, G. W. Trucks, H. B. Schlegel, G. E. Scuseria, 
 M. A. Robb, J. R. Cheeseman, G. Scalmani, V. Barone, B. Mennucci, 
 G. A. Petersson, H. Nakatsuji, M. Caricato, X. Li, H. P. Hratchian, 
 A. F. Izmaylov, J. Bloino, G. Zheng, J. L. Sonnenberg, M. Hada, 
 M. Ehara, K. Toyota, R. Fukuda, J. Hasegawa, M. Ishida, T. Nakajima, 
 Y. Honda, O. Kitao, H. Nakai, T. Vreven, J. A. Montgomery, Jr., 
 J. E. Peralta, F. Ogliaro, M. Bearpark, J. J. Heyd, E. Brothers, 
 K. N. Kudin, V. N. Staroverov, T. Keith, R. Kobayashi, J. Normand, 
 K. Raghavachari, A. Rendell, J. C. Burant, S. S. Iyengar, J. Tomasi, 
 M. Cossi, N. Rega, J. M. Millam, M. Klene, J. E. Knox, J. B. Cross, 
 V. Bakken, C. Adamo, J. Jaramillo, R. Gomperts, R. E. Stratmann, 
 O. Yazyev, A. J. Austin, R. Cammi, C. Pomelli, J. W. Ochterski, 
 R. L. Martin, K. Morokuma, V. G. Zakrzewski, G. A. Voth, 
 P. Salvador, J. J. Dannenberg, S. Dapprich, A. D. Daniels, 
 O. Farkas, J. B. Foresman, J. V. Ortiz, J. Cioslowski, 
 and D. J. Fox, Gaussian, Inc., Wallingford CT, 2010.
 
 ******************************************
 Gaussian 09:  AM64L-G09RevC.01 23-Sep-2011
                17-Feb-2018 
 ******************************************
 %nprocs=12
 Will use up to   12 processors via shared memory.
 %chk=frag37-conf0.chk
 --------------------------------------------------------------
 #B3LYP/6-31G* Integral=(Grid=UltraFine) freq Opt pop=none SCRF
 --------------------------------------------------------------
 1/14=-1,18=20,19=15,26=3,38=1/1,3;
 2/9=110,12=2,17=6,18=5,40=1/2;
 3/5=1,6=6,7=1,11=2,16=1,25=1,30=1,70=2201,71=1,72=1,74=-5,75=-5/1,2,3;
 4//1;
 5/5=2,38=5/2;
 7//1,2,3,16;
 1/14=-1,18=20,19=15/3(2);
 2/9=110/2;
 99//99;
 2/9=110/2;
 3/5=1,6=6,7=1,11=2,16=1,25=1,30=1,70=2205,71=1,74=-5,75=-5/1,2,3;
 4/5=5,16=3/1;
 5/5=2,38=5/2;
 7//1,2,3,16;
 1/14=-1,18=20,19=15/3(-5);
 2/9=110/2;
 99/9=1/99;
 -----------------------------
 Optimization for frag37-conf0
 -----------------------------
 Charge =  0 Multiplicity = 1
 Symbolic Z-Matrix:
 C                     2.93929  -5.01327  -2.5644 
 C                     6.33453  -2.17618  -0.25765 
 C                    -0.79501  -1.99339  -1.67646 
 C                    -0.06831  -1.60704  -2.95911 
 C                     0.16491  -2.06971  -0.49512 
 C                     1.10218  -2.54582  -3.24769 
 C                     1.33724  -3.00903  -0.77808 
 C                     2.08806  -2.61612  -2.06676 
 C                     2.3411   -6.94725  -3.95976 
 C                     2.86189  -4.82985  -5.0959 
 C                     4.96087  -2.08472  -0.96699 
 C                     3.31589  -3.51198  -2.38184 
 N                     2.71384  -5.54263  -3.83051 
 N                     4.32567  -3.41796  -1.26579 
 O                     6.80208  -1.11787   0.25192 
 O                     2.87306  -5.73592  -1.5555 
 O                     6.86099  -3.33495  -0.25996 
 H                    -1.58447  -1.26358  -1.46471 
 H                    -1.28549  -2.9651   -1.81245 
 H                    -0.77058  -1.62584  -3.80019 
 H                     0.30128  -0.57764  -2.87501 
 H                     0.54789  -1.06694  -0.26888 
 H                    -0.37427  -2.4132    0.39501 
 H                     0.70345  -3.54215  -3.47082 
 H                     1.62064  -2.1917   -4.1457 
 H                     2.01055  -2.98698   0.08521 
 H                     0.95288  -4.03244  -0.86051 
 H                     2.46115  -1.59248  -1.92193 
 H                     1.40897  -7.01323  -4.52894 
 H                     2.19363  -7.43181  -2.99166 
 H                     3.13557  -7.47143  -4.4993 
 H                     3.63945  -5.32672  -5.68404 
 H                     3.13542  -3.7847   -4.97735 
 H                     1.91248  -4.8813   -5.63749 
 H                     5.10407  -1.57401  -1.92458 
 H                     4.25279  -1.52625  -0.34813 
 H                     3.85239  -3.14074  -3.25601 
 H                     5.11545  -4.0465   -1.47897 
 H                     3.94783  -3.84237  -0.41124 
 

 GradGradGradGradGradGradGradGradGradGradGradGradGradGradGradGradGradGrad
 Berny optimization.
 Initialization pass.
                           ----------------------------
                           !    Initial Parameters    !
                           ! (Angstroms and Degrees)  !
 --------------------------                            --------------------------
 ! Name  Definition              Value          Derivative Info.                !
 --------------------------------------------------------------------------------
 ! R1    R(1,12)                 1.5585         estimate D2E/DX2                !
 ! R2    R(1,13)                 1.3907         estimate D2E/DX2                !
 ! R3    R(1,16)                 1.2428         estimate D2E/DX2                !
 ! R4    R(2,11)                 1.5487         estimate D2E/DX2                !
 ! R5    R(2,15)                 1.2642         estimate D2E/DX2                !
 ! R6    R(2,17)                 1.2728         estimate D2E/DX2                !
 ! R7    R(3,4)                  1.524          estimate D2E/DX2                !
 ! R8    R(3,5)                  1.5241         estimate D2E/DX2                !
 ! R9    R(3,18)                 1.0958         estimate D2E/DX2                !
 ! R10   R(3,19)                 1.097          estimate D2E/DX2                !
 ! R11   R(4,6)                  1.5279         estimate D2E/DX2                !
 ! R12   R(4,20)                 1.0959         estimate D2E/DX2                !
 ! R13   R(4,21)                 1.097          estimate D2E/DX2                !
 ! R14   R(5,7)                  1.5286         estimate D2E/DX2                !
 ! R15   R(5,22)                 1.097          estimate D2E/DX2                !
 ! R16   R(5,23)                 1.0959         estimate D2E/DX2                !
 ! R17   R(6,8)                  1.54           estimate D2E/DX2                !
 ! R18   R(6,24)                 1.0961         estimate D2E/DX2                !
 ! R19   R(6,25)                 1.0957         estimate D2E/DX2                !
 ! R20   R(7,8)                  1.5423         estimate D2E/DX2                !
 ! R21   R(7,26)                 1.095          estimate D2E/DX2                !
 ! R22   R(7,27)                 1.0963         estimate D2E/DX2                !
 ! R23   R(8,12)                 1.5522         estimate D2E/DX2                !
 ! R24   R(8,28)                 1.0991         estimate D2E/DX2                !
 ! R25   R(9,13)                 1.459          estimate D2E/DX2                !
 ! R26   R(9,29)                 1.0942         estimate D2E/DX2                !
 ! R27   R(9,30)                 1.0926         estimate D2E/DX2                !
 ! R28   R(9,31)                 1.0941         estimate D2E/DX2                !
 ! R29   R(10,13)                1.4599         estimate D2E/DX2                !
 ! R30   R(10,32)                1.0942         estimate D2E/DX2                !
 ! R31   R(10,33)                1.0868         estimate D2E/DX2                !
 ! R32   R(10,34)                1.0942         estimate D2E/DX2                !
 ! R33   R(11,14)                1.5067         estimate D2E/DX2                !
 ! R34   R(11,35)                1.0947         estimate D2E/DX2                !
 ! R35   R(11,36)                1.0937         estimate D2E/DX2                !
 ! R36   R(12,14)                1.508          estimate D2E/DX2                !
 ! R37   R(12,37)                1.0908         estimate D2E/DX2                !
 ! R38   R(14,38)                1.0316         estimate D2E/DX2                !
 ! R39   R(14,39)                1.0262         estimate D2E/DX2                !
 ! A1    A(12,1,13)            120.8285         estimate D2E/DX2                !
 ! A2    A(12,1,16)            118.5489         estimate D2E/DX2                !
 ! A3    A(13,1,16)            120.6042         estimate D2E/DX2                !
 ! A4    A(11,2,15)            117.5946         estimate D2E/DX2                !
 ! A5    A(11,2,17)            114.8235         estimate D2E/DX2                !
 ! A6    A(15,2,17)            127.5818         estimate D2E/DX2                !
 ! A7    A(4,3,5)              111.3914         estimate D2E/DX2                !
 ! A8    A(4,3,18)             109.7152         estimate D2E/DX2                !
 ! A9    A(4,3,19)             109.4775         estimate D2E/DX2                !
 ! A10   A(5,3,18)             109.715          estimate D2E/DX2                !
 ! A11   A(5,3,19)             109.4723         estimate D2E/DX2                !
 ! A12   A(18,3,19)            106.9653         estimate D2E/DX2                !
 ! A13   A(3,4,6)              111.6224         estimate D2E/DX2                !
 ! A14   A(3,4,20)             109.6353         estimate D2E/DX2                !
 ! A15   A(3,4,21)             109.5131         estimate D2E/DX2                !
 ! A16   A(6,4,20)             109.5977         estimate D2E/DX2                !
 ! A17   A(6,4,21)             109.4473         estimate D2E/DX2                !
 ! A18   A(20,4,21)            106.9088         estimate D2E/DX2                !
 ! A19   A(3,5,7)              111.7355         estimate D2E/DX2                !
 ! A20   A(3,5,22)             109.5096         estimate D2E/DX2                !
 ! A21   A(3,5,23)             109.597          estimate D2E/DX2                !
 ! A22   A(7,5,22)             109.3979         estimate D2E/DX2                !
 ! A23   A(7,5,23)             109.5764         estimate D2E/DX2                !
 ! A24   A(22,5,23)            106.9028         estimate D2E/DX2                !
 ! A25   A(4,6,8)              111.9405         estimate D2E/DX2                !
 ! A26   A(4,6,24)             108.5574         estimate D2E/DX2                !
 ! A27   A(4,6,25)             108.5839         estimate D2E/DX2                !
 ! A28   A(8,6,24)             110.3336         estimate D2E/DX2                !
 ! A29   A(8,6,25)             109.8962         estimate D2E/DX2                !
 ! A30   A(24,6,25)            107.4008         estimate D2E/DX2                !
 ! A31   A(5,7,8)              111.8059         estimate D2E/DX2                !
 ! A32   A(5,7,26)             108.2556         estimate D2E/DX2                !
 ! A33   A(5,7,27)             108.5823         estimate D2E/DX2                !
 ! A34   A(8,7,26)             110.7475         estimate D2E/DX2                !
 ! A35   A(8,7,27)             110.2213         estimate D2E/DX2                !
 ! A36   A(26,7,27)            107.0766         estimate D2E/DX2                !
 ! A37   A(6,8,7)              109.9202         estimate D2E/DX2                !
 ! A38   A(6,8,12)             112.1539         estimate D2E/DX2                !
 ! A39   A(6,8,28)             106.0126         estimate D2E/DX2                !
 ! A40   A(7,8,12)             114.0572         estimate D2E/DX2                !
 ! A41   A(7,8,28)             107.0016         estimate D2E/DX2                !
 ! A42   A(12,8,28)            107.2031         estimate D2E/DX2                !
 ! A43   A(13,9,29)            108.7713         estimate D2E/DX2                !
 ! A44   A(13,9,30)            112.5172         estimate D2E/DX2                !
 ! A45   A(13,9,31)            108.6279         estimate D2E/DX2                !
 ! A46   A(29,9,30)            108.6142         estimate D2E/DX2                !
 ! A47   A(29,9,31)            109.4622         estimate D2E/DX2                !
 ! A48   A(30,9,31)            108.8133         estimate D2E/DX2                !
 ! A49   A(13,10,32)           108.4359         estimate D2E/DX2                !
 ! A50   A(13,10,33)           113.6096         estimate D2E/DX2                !
 ! A51   A(13,10,34)           108.5462         estimate D2E/DX2                !
 ! A52   A(32,10,33)           108.4482         estimate D2E/DX2                !
 ! A53   A(32,10,34)           109.2181         estimate D2E/DX2                !
 ! A54   A(33,10,34)           108.5159         estimate D2E/DX2                !
 ! A55   A(2,11,14)            114.3617         estimate D2E/DX2                !
 ! A56   A(2,11,35)            108.1908         estimate D2E/DX2                !
 ! A57   A(2,11,36)            110.1951         estimate D2E/DX2                !
 ! A58   A(14,11,35)           107.1272         estimate D2E/DX2                !
 ! A59   A(14,11,36)           106.9236         estimate D2E/DX2                !
 ! A60   A(35,11,36)           109.9647         estimate D2E/DX2                !
 ! A61   A(1,12,8)             112.8662         estimate D2E/DX2                !
 ! A62   A(1,12,14)            107.9723         estimate D2E/DX2                !
 ! A63   A(1,12,37)            110.6597         estimate D2E/DX2                !
 ! A64   A(8,12,14)            110.0879         estimate D2E/DX2                !
 ! A65   A(8,12,37)            110.8119         estimate D2E/DX2                !
 ! A66   A(14,12,37)           104.0372         estimate D2E/DX2                !
 ! A67   A(1,13,9)             119.2439         estimate D2E/DX2                !
 ! A68   A(1,13,10)            125.9332         estimate D2E/DX2                !
 ! A69   A(9,13,10)            114.783          estimate D2E/DX2                !
 ! A70   A(11,14,12)           118.9616         estimate D2E/DX2                !
 ! A71   A(11,14,38)           104.9129         estimate D2E/DX2                !
 ! A72   A(11,14,39)           110.8561         estimate D2E/DX2                !
 ! A73   A(12,14,38)           108.7666         estimate D2E/DX2                !
 ! A74   A(12,14,39)           110.1182         estimate D2E/DX2                !
 ! A75   A(38,14,39)           101.6515         estimate D2E/DX2                !
 ! D1    D(13,1,12,8)           95.5934         estimate D2E/DX2                !
 ! D2    D(13,1,12,14)        -142.4906         estimate D2E/DX2                !
 ! D3    D(13,1,12,37)         -29.235          estimate D2E/DX2                !
 ! D4    D(16,1,12,8)          -85.9583         estimate D2E/DX2                !
 ! D5    D(16,1,12,14)          35.9578         estimate D2E/DX2                !
 ! D6    D(16,1,12,37)         149.2133         estimate D2E/DX2                !
 ! D7    D(12,1,13,9)         -178.9708         estimate D2E/DX2                !
 ! D8    D(12,1,13,10)           3.4545         estimate D2E/DX2                !
 ! D9    D(16,1,13,9)            2.6128         estimate D2E/DX2                !
 ! D10   D(16,1,13,10)        -174.9619         estimate D2E/DX2                !
 ! D11   D(15,2,11,14)        -166.6396         estimate D2E/DX2                !
 ! D12   D(15,2,11,35)          74.0801         estimate D2E/DX2                !
 ! D13   D(15,2,11,36)         -46.1727         estimate D2E/DX2                !
 ! D14   D(17,2,11,14)          13.2577         estimate D2E/DX2                !
 ! D15   D(17,2,11,35)        -106.0225         estimate D2E/DX2                !
 ! D16   D(17,2,11,36)         133.7246         estimate D2E/DX2                !
 ! D17   D(5,3,4,6)             54.6128         estimate D2E/DX2                !
 ! D18   D(5,3,4,20)           176.2473         estimate D2E/DX2                !
 ! D19   D(5,3,4,21)           -66.7484         estimate D2E/DX2                !
 ! D20   D(18,3,4,6)           176.2969         estimate D2E/DX2                !
 ! D21   D(18,3,4,20)          -62.0685         estimate D2E/DX2                !
 ! D22   D(18,3,4,21)           54.9358         estimate D2E/DX2                !
 ! D23   D(19,3,4,6)           -66.6048         estimate D2E/DX2                !
 ! D24   D(19,3,4,20)           55.0298         estimate D2E/DX2                !
 ! D25   D(19,3,4,21)          172.0341         estimate D2E/DX2                !
 ! D26   D(4,3,5,7)            -54.6202         estimate D2E/DX2                !
 ! D27   D(4,3,5,22)            66.7507         estimate D2E/DX2                !
 ! D28   D(4,3,5,23)          -176.2766         estimate D2E/DX2                !
 ! D29   D(18,3,5,7)          -176.3045         estimate D2E/DX2                !
 ! D30   D(18,3,5,22)          -54.9336         estimate D2E/DX2                !
 ! D31   D(18,3,5,23)           62.0392         estimate D2E/DX2                !
 ! D32   D(19,3,5,7)            66.6004         estimate D2E/DX2                !
 ! D33   D(19,3,5,22)         -172.0287         estimate D2E/DX2                !
 ! D34   D(19,3,5,23)          -55.056          estimate D2E/DX2                !
 ! D35   D(3,4,6,8)            -55.4203         estimate D2E/DX2                !
 ! D36   D(3,4,6,24)            66.6119         estimate D2E/DX2                !
 ! D37   D(3,4,6,25)          -176.9211         estimate D2E/DX2                !
 ! D38   D(20,4,6,8)          -177.0766         estimate D2E/DX2                !
 ! D39   D(20,4,6,24)          -55.0444         estimate D2E/DX2                !
 ! D40   D(20,4,6,25)           61.4227         estimate D2E/DX2                !
 ! D41   D(21,4,6,8)            65.9791         estimate D2E/DX2                !
 ! D42   D(21,4,6,24)         -171.9887         estimate D2E/DX2                !
 ! D43   D(21,4,6,25)          -55.5217         estimate D2E/DX2                !
 ! D44   D(3,5,7,8)             55.2691         estimate D2E/DX2                !
 ! D45   D(3,5,7,26)           177.528          estimate D2E/DX2                !
 ! D46   D(3,5,7,27)           -66.552          estimate D2E/DX2                !
 ! D47   D(22,5,7,8)           -66.1664         estimate D2E/DX2                !
 ! D48   D(22,5,7,26)           56.0925         estimate D2E/DX2                !
 ! D49   D(22,5,7,27)          172.0125         estimate D2E/DX2                !
 ! D50   D(23,5,7,8)           176.9373         estimate D2E/DX2                !
 ! D51   D(23,5,7,26)          -60.8038         estimate D2E/DX2                !
 ! D52   D(23,5,7,27)           55.1162         estimate D2E/DX2                !
 ! D53   D(4,6,8,7)             54.8944         estimate D2E/DX2                !
 ! D54   D(4,6,8,12)          -177.1026         estimate D2E/DX2                !
 ! D55   D(4,6,8,28)           -60.4185         estimate D2E/DX2                !
 ! D56   D(24,6,8,7)           -66.1153         estimate D2E/DX2                !
 ! D57   D(24,6,8,12)           61.8877         estimate D2E/DX2                !
 ! D58   D(24,6,8,28)          178.5718         estimate D2E/DX2                !
 ! D59   D(25,6,8,7)           175.6365         estimate D2E/DX2                !
 ! D60   D(25,6,8,12)          -56.3605         estimate D2E/DX2                !
 ! D61   D(25,6,8,28)           60.3236         estimate D2E/DX2                !
 ! D62   D(5,7,8,6)            -54.7615         estimate D2E/DX2                !
 ! D63   D(5,7,8,12)           178.2948         estimate D2E/DX2                !
 ! D64   D(5,7,8,28)            59.9228         estimate D2E/DX2                !
 ! D65   D(26,7,8,6)          -175.5825         estimate D2E/DX2                !
 ! D66   D(26,7,8,12)           57.4739         estimate D2E/DX2                !
 ! D67   D(26,7,8,28)          -60.8982         estimate D2E/DX2                !
 ! D68   D(27,7,8,6)            66.1119         estimate D2E/DX2                !
 ! D69   D(27,7,8,12)          -60.8318         estimate D2E/DX2                !
 ! D70   D(27,7,8,28)         -179.2038         estimate D2E/DX2                !
 ! D71   D(6,8,12,1)           -66.0021         estimate D2E/DX2                !
 ! D72   D(6,8,12,14)          173.2814         estimate D2E/DX2                !
 ! D73   D(6,8,12,37)           58.7434         estimate D2E/DX2                !
 ! D74   D(7,8,12,1)            59.7745         estimate D2E/DX2                !
 ! D75   D(7,8,12,14)          -60.942          estimate D2E/DX2                !
 ! D76   D(7,8,12,37)         -175.48           estimate D2E/DX2                !
 ! D77   D(28,8,12,1)          178.0315         estimate D2E/DX2                !
 ! D78   D(28,8,12,14)          57.315          estimate D2E/DX2                !
 ! D79   D(28,8,12,37)         -57.223          estimate D2E/DX2                !
 ! D80   D(29,9,13,1)          125.3044         estimate D2E/DX2                !
 ! D81   D(29,9,13,10)         -56.8584         estimate D2E/DX2                !
 ! D82   D(30,9,13,1)            4.9169         estimate D2E/DX2                !
 ! D83   D(30,9,13,10)        -177.2459         estimate D2E/DX2                !
 ! D84   D(31,9,13,1)         -115.623          estimate D2E/DX2                !
 ! D85   D(31,9,13,10)          62.2142         estimate D2E/DX2                !
 ! D86   D(32,10,13,1)         118.0647         estimate D2E/DX2                !
 ! D87   D(32,10,13,9)         -59.6046         estimate D2E/DX2                !
 ! D88   D(33,10,13,1)          -2.5819         estimate D2E/DX2                !
 ! D89   D(33,10,13,9)         179.7489         estimate D2E/DX2                !
 ! D90   D(34,10,13,1)        -123.3925         estimate D2E/DX2                !
 ! D91   D(34,10,13,9)          58.9383         estimate D2E/DX2                !
 ! D92   D(2,11,14,12)        -156.2407         estimate D2E/DX2                !
 ! D93   D(2,11,14,38)         -34.3767         estimate D2E/DX2                !
 ! D94   D(2,11,14,39)          74.5959         estimate D2E/DX2                !
 ! D95   D(35,11,14,12)        -36.3638         estimate D2E/DX2                !
 ! D96   D(35,11,14,38)         85.5001         estimate D2E/DX2                !
 ! D97   D(35,11,14,39)       -165.5272         estimate D2E/DX2                !
 ! D98   D(36,11,14,12)         81.4904         estimate D2E/DX2                !
 ! D99   D(36,11,14,38)       -156.6457         estimate D2E/DX2                !
 ! D100  D(36,11,14,39)        -47.673          estimate D2E/DX2                !
 ! D101  D(1,12,14,11)         174.2282         estimate D2E/DX2                !
 ! D102  D(1,12,14,38)          54.3146         estimate D2E/DX2                !
 ! D103  D(1,12,14,39)         -56.2719         estimate D2E/DX2                !
 ! D104  D(8,12,14,11)         -62.1571         estimate D2E/DX2                !
 ! D105  D(8,12,14,38)         177.9293         estimate D2E/DX2                !
 ! D106  D(8,12,14,39)          67.3428         estimate D2E/DX2                !
 ! D107  D(37,12,14,11)         56.6193         estimate D2E/DX2                !
 ! D108  D(37,12,14,38)        -63.2943         estimate D2E/DX2                !
 ! D109  D(37,12,14,39)       -173.8808         estimate D2E/DX2                !
 --------------------------------------------------------------------------------
 Trust Radius=3.00D-01 FncErr=1.00D-07 GrdErr=1.00D-06
 Number of steps in this run=    233 maximum allowed number of steps=    234.
 GradGradGradGradGradGradGradGradGradGradGradGradGradGradGradGradGradGrad

                          Input orientation:                          
 ---------------------------------------------------------------------
 Center     Atomic      Atomic             Coordinates (Angstroms)
 Number     Number       Type             X           Y           Z
 ---------------------------------------------------------------------
      1          6           0        2.939285   -5.013274   -2.564401
      2          6           0        6.334527   -2.176177   -0.257653
      3          6           0       -0.795006   -1.993385   -1.676460
      4          6           0       -0.068310   -1.607043   -2.959110
      5          6           0        0.164906   -2.069713   -0.495123
      6          6           0        1.102182   -2.545816   -3.247689
      7          6           0        1.337235   -3.009028   -0.778077
      8          6           0        2.088061   -2.616124   -2.066765
      9          6           0        2.341102   -6.947248   -3.959760
     10          6           0        2.861891   -4.829852   -5.095901
     11          6           0        4.960867   -2.084717   -0.966994
     12          6           0        3.315893   -3.511983   -2.381842
     13          7           0        2.713845   -5.542634   -3.830510
     14          7           0        4.325667   -3.417960   -1.265793
     15          8           0        6.802082   -1.117875    0.251917
     16          8           0        2.873055   -5.735924   -1.555500
     17          8           0        6.860992   -3.334946   -0.259963
     18          1           0       -1.584466   -1.263584   -1.464713
     19          1           0       -1.285494   -2.965100   -1.812453
     20          1           0       -0.770584   -1.625845   -3.800195
     21          1           0        0.301282   -0.577637   -2.875008
     22          1           0        0.547892   -1.066942   -0.268881
     23          1           0       -0.374268   -2.413196    0.395014
     24          1           0        0.703451   -3.542152   -3.470815
     25          1           0        1.620636   -2.191700   -4.145695
     26          1           0        2.010548   -2.986979    0.085206
     27          1           0        0.952879   -4.032439   -0.860515
     28          1           0        2.461153   -1.592480   -1.921929
     29          1           0        1.408972   -7.013229   -4.528944
     30          1           0        2.193627   -7.431806   -2.991663
     31          1           0        3.135570   -7.471428   -4.499304
     32          1           0        3.639449   -5.326719   -5.684040
     33          1           0        3.135420   -3.784698   -4.977352
     34          1           0        1.912479   -4.881302   -5.637490
     35          1           0        5.104073   -1.574012   -1.924578
     36          1           0        4.252791   -1.526247   -0.348134
     37          1           0        3.852388   -3.140743   -3.256013
     38          1           0        5.115446   -4.046503   -1.478966
     39          1           0        3.947835   -3.842371   -0.411243
 ---------------------------------------------------------------------
                    Distance matrix (angstroms):
                    1          2          3          4          5
     1  C    0.000000
     2  C    4.989777   0.000000
     3  C    4.883964   7.271635   0.000000
     4  C    4.561122   6.972669   1.523988   0.000000
     5  C    4.543528   6.175108   1.524079   2.517874   0.000000
     6  C    3.151218   6.037747   2.524532   1.527947   2.946486
     7  C    3.126423   5.092879   2.526871   2.949242   1.528637
     8  C    2.592016   4.636692   2.975268   2.542531   2.543059
     9  C    2.458680   7.239900   6.292010   5.943429   6.366309
    10  C    2.539316   6.519957   5.754217   4.851644   6.004936
    11  C    3.900634   1.548700   5.800152   5.430407   4.819142
    12  C    1.558536   3.925393   4.438829   3.926177   3.945703
    13  N    1.390710   6.099809   5.435911   4.897815   5.448217
    14  N    2.480618   2.567857   5.330981   5.045173   4.441130
    15  O    6.166602   1.264229   7.886755   7.599491   6.746567
    16  O    1.242775   5.132055   5.241746   5.260171   4.679698
    17  O    4.848402   1.272759   7.900669   7.634545   6.818628
    18  H    5.977776   8.062275   1.095761   2.156367   2.156444
    19  H    4.754914   7.816939   1.096951   2.154224   2.154237
    20  H    5.173489   7.958334   2.155442   1.095886   3.463476
    21  H    5.170146   6.768008   2.154694   1.096972   2.812248
    22  H    5.153805   5.892001   2.154751   2.812249   1.097002
    23  H    5.147638   6.744634   2.155056   3.463183   1.095916
    24  H    2.825728   6.625656   2.804240   2.145251   3.363459
    25  H    3.492936   6.110474   3.460025   2.145308   3.932011
    26  H    3.462491   4.412681   3.458588   3.936208   2.141157
    27  H    2.794830   5.724621   2.806887   3.365929   2.146324
    28  H    3.513290   4.256001   3.289917   2.733887   2.745228
    29  H    3.193918   8.118011   6.180050   5.820102   6.500598
    30  H    2.566682   7.227966   6.343351   6.248622   6.253036
    31  H    3.134469   7.500974   7.309365   6.857700   7.350975
    32  H    3.212572   6.828984   6.843698   5.916815   7.043110
    33  H    2.714811   5.924287   5.436261   4.367993   5.644068
    34  H    3.242780   7.470934   5.600027   4.670976   6.115798
    35  H    4.113904   2.157605   5.919170   5.274931   5.165698
    36  H    4.335493   2.182710   5.240508   5.049321   4.126471
    37  H    2.195098   4.010182   5.040803   4.220457   4.729391
    38  H    2.616962   2.544776   6.260012   5.917188   5.420654
    39  H    2.650335   2.914806   5.245385   5.255258   4.178505
                    6          7          8          9         10
     6  C    0.000000
     7  C    2.523648   0.000000
     8  C    1.539962   1.542346   0.000000
     9  C    4.627588   5.161437   4.733508   0.000000
    10  C    3.424804   4.927838   3.830806   2.458740   0.000000
    11  C    4.505955   3.744429   3.121682   6.282040   5.384175
    12  C    2.565870   2.596173   1.552227   3.903983   3.051068
    13  N    3.452253   4.198994   3.473738   1.458967   1.459860
    14  N    3.883221   3.055457   2.508261   4.863315   4.336567
    15  O    6.839234   5.873832   5.462877   8.462870   7.609405
    16  O    4.021975   3.224762   3.257415   2.744221   3.654522
    17  O    6.535529   5.557568   5.153844   6.867797   6.450880
    18  H    3.470043   3.471942   3.959708   7.344343   6.758246
    19  H    2.817215   2.819676   3.401079   5.798330   5.608844
    20  H    2.158440   3.935645   3.486730   6.166473   5.013920
    21  H    2.157327   3.373719   2.828651   6.775654   5.437869
    22  H    3.371588   2.157323   2.829218   7.170508   6.543257
    23  H    3.932782   2.158796   3.487778   6.847987   6.816385
    24  H    1.096109   2.817223   2.178538   3.809941   2.992981
    25  H    1.095722   3.476952   2.172688   4.813406   3.066505
    26  H    3.482520   1.095032   2.185068   5.670516   5.564606
    27  H    2.816192   1.096310   2.179363   4.475332   4.713671
    28  H    2.124451   2.139672   1.099101   5.730681   4.551403
    29  H    4.657630   5.487056   5.085079   1.094162   2.683198
    30  H    5.012952   5.019395   4.904831   1.092592   3.412412
    31  H    5.473834   6.082314   5.530686   1.094098   2.721902
    32  H    4.484077   5.894094   4.778996   2.699066   1.094249
    33  H    2.942892   4.633469   3.306666   3.415868   1.086840
    34  H    3.438346   5.239295   4.232250   2.695668   1.094234
    35  H    4.325525   4.190800   3.194142   6.375550   5.068054
    36  H    4.401509   3.299084   2.971124   6.788642   5.948925
    37  H    2.813831   3.533201   2.191434   4.155565   2.686888
    38  H    4.635378   3.980261   3.399492   4.718649   4.332940
    39  H    4.221874   2.764825   2.775462   4.981348   4.909218
                   11         12         13         14         15
    11  C    0.000000
    12  C    2.597080   0.000000
    13  N    5.020559   2.566055   0.000000
    14  N    1.506750   1.507995   3.699998   0.000000
    15  O    2.410519   4.982164   7.277251   3.704924   0.000000
    16  O    4.246953   2.413474   2.288750   2.750812   6.326957
    17  O    2.381899   4.135389   5.900976   2.728820   2.276159
    18  H    6.615389   5.468998   6.510202   6.293693   8.561672
    19  H    6.364503   4.668624   5.168263   5.655886   8.548845
    20  H    6.409924   4.718956   5.242461   5.967131   8.603657
    21  H    5.255810   4.235738   5.602198   5.181957   7.233942
    22  H    4.582311   4.254957   6.116238   4.559901   6.276043
    23  H    5.516033   4.747162   6.097940   5.084999   7.293718
    24  H    5.149643   2.830482   2.858844   4.242404   7.545141
    25  H    4.612237   2.779968   3.538814   4.136997   6.880369
    26  H    3.259691   2.840050   4.728512   2.714907   5.145885
    27  H    4.457457   2.858172   3.768628   3.452178   6.629130
    28  H    2.720803   2.150952   4.394342   2.690595   4.877963
    29  H    7.042278   4.528258   2.086422   5.664030   9.311148
    30  H    6.352028   4.122665   2.131492   4.861603   8.463120
    31  H    6.695190   4.493702   2.084559   5.320012   8.739854
    32  H    5.874286   3.781859   2.083011   4.861601   7.934242
    33  H    4.722834   2.616030   2.140867   3.914953   6.921099
    34  H    6.239158   3.800506   2.084400   5.203516   8.529755
    35  H    1.094667   2.676268   5.009563   2.107144   2.797932
    36  H    1.093732   2.992808   5.534136   2.103803   2.650606
    37  H    2.753820   1.090789   2.719449   2.064417   5.009817
    38  H    2.033375   2.083095   3.679110   1.031630   3.797047
    39  H    2.103435   2.095654   4.013105   1.026225   4.001173
                   16         17         18         19         20
    16  O    0.000000
    17  O    4.831848   0.000000
    18  H    6.315026   8.778823   0.000000
    19  H    5.003701   8.301341   1.762233   0.000000
    20  H    5.933592   8.584593   2.499623   2.451501   0.000000
    21  H    5.912955   7.580964   2.452652   3.057264   1.761706
    22  H    5.372259   6.708141   2.452679   3.057274   3.810634
    23  H    5.038862   7.323087   2.498953   2.451090   4.286813
    24  H    3.631563   6.947504   3.801432   2.653122   2.439980
    25  H    4.564996   6.623237   4.280390   3.806279   2.481430
    26  H    3.315499   4.875144   4.277437   3.803352   4.968272
    27  H    2.659312   5.979378   3.803910   2.656260   4.171779
    28  H    4.179959   5.015666   4.084636   3.991671   3.738064
    29  H    3.551960   7.840822   7.169979   5.570173   5.857086
    30  H    2.323833   6.784596   7.392734   5.783276   6.568824
    31  H    3.427370   6.997232   8.368082   6.860901   7.065241
    32  H    4.218963   6.615595   7.848635   6.694886   6.057535
    33  H    3.947808   6.027928   6.400935   5.498436   4.615540
    34  H    4.279688   7.469725   6.536710   5.341327   4.601357
    35  H    4.736578   2.993092   6.711512   6.540204   6.167027
    36  H    4.591599   3.175198   5.948891   5.906533   6.095978
    37  H    3.253582   4.250379   6.024273   5.339715   4.895194
    38  H    2.808615   2.244819   7.254906   6.500206   6.774440
    39  H    2.459678   2.960887   6.194053   5.488236   6.217834
                   21         22         23         24         25
    21  H    0.000000
    22  H    2.663106   0.000000
    23  H    3.810339   1.761685   0.000000
    24  H    3.050421   4.050092   4.169011   0.000000
    25  H    2.441421   4.176787   4.964548   1.766468   0.000000
    26  H    4.182031   2.439525   2.472358   3.829100   4.322618
    27  H    4.051964   3.050938   2.441234   2.667633   3.824477
    28  H    2.569690   2.582504   3.752520   3.047915   2.451667
    29  H    6.736418   7.365320   6.970338   3.696725   4.841366
    30  H    7.111554   7.115720   6.576482   4.192806   5.396185
    31  H    7.628622   8.099999   7.865050   4.734152   5.504143
    32  H    6.448860   7.551647   7.845599   4.086946   4.033665
    33  H    4.768377   6.020896   6.562106   2.871054   2.350290
    34  H    5.361790   6.725578   6.907378   2.819495   3.089431
    35  H    4.996287   4.874139   6.008074   5.062598   4.177228
    36  H    4.785329   3.734102   4.769551   5.139341   4.668248
    37  H    4.396024   4.913583   5.632401   3.181678   2.583203
    38  H    6.095747   5.586111   6.026313   4.866984   4.771314
    39  H    5.479596   4.391228   4.623112   4.469579   4.699649
                   26         27         28         29         30
    26  H    0.000000
    27  H    1.762396   0.000000
    28  H    2.485209   3.058576   0.000000
    29  H    6.153290   4.748737   6.106401   0.000000
    30  H    5.408986   4.199636   5.942527   1.775985   0.000000
    31  H    6.511044   5.461828   6.454434   1.786607   1.778146
    32  H    6.435208   5.670909   5.430138   3.025491   3.710887
    33  H    5.247017   4.666176   3.820479   3.688510   4.258090
    34  H    6.028875   4.945795   4.992273   2.455098   3.685717
    35  H    3.950393   4.940496   2.642986   7.072594   6.627452
    36  H    2.710936   4.175278   2.385620   7.461465   6.789995
    37  H    3.818346   3.865318   2.472333   4.752556   4.608100
    38  H    3.634504   4.208282   3.641938   5.642852   4.720758
    39  H    2.175141   3.034424   3.091020   5.784084   4.756033
                   31         32         33         34         35
    31  H    0.000000
    32  H    2.501454   0.000000
    33  H    3.717595   1.769543   0.000000
    34  H    3.082235   1.784093   1.770284   0.000000
    35  H    6.729319   5.510126   4.252312   5.908482   0.000000
    36  H    7.336591   6.579640   5.270558   6.686609   1.792244
    37  H    4.562284   3.274011   1.972747   3.530471   2.407090
    38  H    4.977194   4.636826   4.028368   5.314998   2.512352
    39  H    5.526488   5.486417   4.638178   5.704008   2.961845
                   36         37         38         39
    36  H    0.000000
    37  H    3.350027   0.000000
    38  H    2.893898   2.360849   0.000000
    39  H    2.336967   2.931571   1.595312   0.000000
 Stoichiometry    C12H22N2O3
 Framework group  C1[X(C12H22N2O3)]
 Deg. of freedom   111
 Full point group                 C1      NOp   1
 Largest Abelian subgroup         C1      NOp   1
 Largest concise Abelian subgroup C1      NOp   1
                         Standard orientation:                         
 ---------------------------------------------------------------------
 Center     Atomic      Atomic             Coordinates (Angstroms)
 Number     Number       Type             X           Y           Z
 ---------------------------------------------------------------------
      1          6           0       -0.591977    1.532288   -0.480573
      2          6           0        4.021388   -0.241341    0.204247
      3          6           0       -2.745317   -2.848875   -0.333483
      4          6           0       -2.596279   -2.262114    1.065101
      5          6           0       -1.406777   -2.899804   -1.060487
      6          6           0       -1.924099   -0.890375    1.031487
      7          6           0       -0.730634   -1.529356   -1.098336
      8          6           0       -0.561864   -0.934542    0.314656
      9          6           0       -2.170769    3.408090   -0.664660
     10          6           0       -1.740112    2.486231    1.573668
     11          6           0        2.537080   -0.592936    0.471986
     12          6           0        0.158052    0.440397    0.340562
     13          7           0       -1.469802    2.413936    0.140874
     14          7           0        1.549726    0.307092   -0.224703
     15          8           0        4.894189   -1.093395    0.536659
     16          8           0       -0.366784    1.617861   -1.699776
     17          8           0        4.212170    0.894643   -0.337102
     18          1           0       -3.169037   -3.857276   -0.268062
     19          1           0       -3.452520   -2.241405   -0.911538
     20          1           0       -3.582310   -2.176842    1.535673
     21          1           0       -2.003705   -2.944056    1.687323
     22          1           0       -0.745624   -3.618600   -0.560866
     23          1           0       -1.557621   -3.263218   -2.083330
     24          1           0       -2.596047   -0.184846    0.529323
     25          1           0       -1.792277   -0.540766    2.061538
     26          1           0        0.240885   -1.639672   -1.591363
     27          1           0       -1.333897   -0.859262   -1.721989
     28          1           0        0.059369   -1.637591    0.887207
     29          1           0       -3.246172    3.308883   -0.488995
     30          1           0       -1.979749    3.290397   -1.733967
     31          1           0       -1.841182    4.404325   -0.354921
     32          1           0       -1.440501    3.475470    1.932863
     33          1           0       -1.211919    1.734836    2.154734
     34          1           0       -2.814934    2.355821    1.732090
     35          1           0        2.352992   -0.502243    1.547245
     36          1           0        2.325377   -1.613877    0.141668
     37          1           0        0.319992    0.773807    1.366444
     38          1           0        1.996201    1.237087   -0.230209
     39          1           0        1.504459    0.092983   -1.227322
 ---------------------------------------------------------------------
 Rotational constants (GHZ):      0.4859860      0.3071999      0.2202212
 Standard basis: 6-31G(d) (6D, 7F)
 There are   299 symmetry adapted basis functions of A   symmetry.
 Integral buffers will be    131072 words long.
 Raffenetti 2 integral format.
 Two-electron integral symmetry is turned on.
   299 basis functions,   564 primitive gaussians,   299 cartesian basis functions
    66 alpha electrons       66 beta electrons
       nuclear repulsion energy      1310.4765304801 Hartrees.
 NAtoms=   39 NActive=   39 NUniq=   39 SFac= 1.00D+00 NAtFMM=   60 NAOKFM=F Big=F
 ------------------------------------------------------------------------------
 Polarizable Continuum Model (PCM)
 =================================
 Model                : PCM.
 Atomic radii         : UFF (Universal Force Field).
 Polarization charges : Total charges.
 Charge compensation  : None.
 Solution method      : Matrix inversion.
 Cavity type          : Scaled VdW (van der Waals Surface) (Alpha=1.100).
 Cavity algorithm     : GePol (No added spheres)
                        Default sphere list used, NSphG=   39.
                        Lebedev-Laikov grids with approx.  5.0 points / Ang**2.
                        Smoothing algorithm: Karplus/York (Gamma=1.0000).
                        Polarization charges: spherical gaussians, with
                                              point-specific exponents (IZeta= 3).
                        Self-potential: point-specific (ISelfS= 7).
                        Self-field    : sphere-specific E.n sum rule (ISelfD= 2).
 1st derivatives      : Analytical E(r).r(x)/FMM algorithm (CHGder, D1EAlg=3).
                        Cavity 1st derivative terms included.
 Solvent              : Water, Eps=  78.355300 Eps(inf)=   1.777849
 ------------------------------------------------------------------------------
 One-electron integrals computed using PRISM.
 PrsmSu:  requested number of processors reduced to:  10 ShMem   1 Linda.
 NBasis=   299 RedAO= T  NBF=   299
 NBsUse=   299 1.00D-06 NBFU=   299
 Harris functional with IExCor=  402 diagonalized for initial guess.
 ExpMin= 1.61D-01 ExpMax= 5.48D+03 ExpMxC= 8.25D+02 IAcc=3 IRadAn=         5 AccDes= 0.00D+00
 HarFok:  IExCor=  402 AccDes= 0.00D+00 IRadAn=         5 IDoV= 1
 ScaDFX=  1.000000  1.000000  1.000000  1.000000
 FoFCou: FMM=F IPFlag=           0 FMFlag=      100000 FMFlg1=           0
         NFxFlg=           0 DoJE=T BraDBF=F KetDBF=T FulRan=T
         Omega=  0.000000  0.000000  1.000000  0.000000  0.000000 ICntrl=     500 IOpCl=  0
         NMat0=    1 NMatS0=    1 NMatT0=    0 NMatD0=    1 NMtDS0=    0 NMtDT0=    0
         I1Cent=           4 NGrid=           0.
 Petite list used in FoFCou.
 Initial guess orbital symmetries:
       Occupied  (A) (A) (A) (A) (A) (A) (A) (A) (A) (A) (A) (A)
                 (A) (A) (A) (A) (A) (A) (A) (A) (A) (A) (A) (A)
                 (A) (A) (A) (A) (A) (A) (A) (A) (A) (A) (A) (A)
                 (A) (A) (A) (A) (A) (A) (A) (A) (A) (A) (A) (A)
                 (A) (A) (A) (A) (A) (A) (A) (A) (A) (A) (A) (A)
                 (A) (A) (A) (A) (A) (A)
       Virtual   (A) (A) (A) (A) (A) (A) (A) (A) (A) (A) (A) (A)
                 (A) (A) (A) (A) (A) (A) (A) (A) (A) (A) (A) (A)
                 (A) (A) (A) (A) (A) (A) (A) (A) (A) (A) (A) (A)
                 (A) (A) (A) (A) (A) (A) (A) (A) (A) (A) (A) (A)
                 (A) (A) (A) (A) (A) (A) (A) (A) (A) (A) (A) (A)
                 (A) (A) (A) (A) (A) (A) (A) (A) (A) (A) (A) (A)
                 (A) (A) (A) (A) (A) (A) (A) (A) (A) (A) (A) (A)
                 (A) (A) (A) (A) (A) (A) (A) (A) (A) (A) (A) (A)
                 (A) (A) (A) (A) (A) (A) (A) (A) (A) (A) (A) (A)
                 (A) (A) (A) (A) (A) (A) (A) (A) (A) (A) (A) (A)
                 (A) (A) (A) (A) (A) (A) (A) (A) (A) (A) (A) (A)
                 (A) (A) (A) (A) (A) (A) (A) (A) (A) (A) (A) (A)
                 (A) (A) (A) (A) (A) (A) (A) (A) (A) (A) (A) (A)
                 (A) (A) (A) (A) (A) (A) (A) (A) (A) (A) (A) (A)
                 (A) (A) (A) (A) (A) (A) (A) (A) (A) (A) (A) (A)
                 (A) (A) (A) (A) (A) (A) (A) (A) (A) (A) (A) (A)
                 (A) (A) (A) (A) (A) (A) (A) (A) (A) (A) (A) (A)
                 (A) (A) (A) (A) (A) (A) (A) (A) (A) (A) (A) (A)
                 (A) (A) (A) (A) (A) (A) (A) (A) (A) (A) (A) (A)
                 (A) (A) (A) (A) (A)
 The electronic state of the initial guess is 1-A.
 Requested convergence on RMS density matrix=1.00D-08 within 128 cycles.
 Requested convergence on MAX density matrix=1.00D-06.
 Requested convergence on             energy=1.00D-06.
 No special actions if energy rises.
 CoulSu:  requested number of processors reduced to:   6 ShMem   1 Linda.
 CoulSu:  requested number of processors reduced to:   6 ShMem   1 Linda.
 Error on total polarization charges =  0.00873
 SCF Done:  E(RB3LYP) =  -805.722549912     A.U. after   13 cycles
             Convg  =    0.8525D-08             -V/T =  2.0097
 PrsmSu:  requested number of processors reduced to:  10 ShMem   1 Linda.
 D1PCM: PCM CHGder 1st derivatives, ID1Alg=3 FixD1E=F DoIter=F DoCFld=F I1PDM=0.
 CoulSu:  requested number of processors reduced to:   9 ShMem   1 Linda.
 CoulSu:  requested number of processors reduced to:   8 ShMem   1 Linda.
 CoulSu:  requested number of processors reduced to:   8 ShMem   1 Linda.
 Calling FoFJK, ICntrl=      2127 FMM=F ISym2X=0 I1Cent= 0 IOpClX= 0 NMat=1 NMatS=1 NMatT=0.
 ***** Axes restored to original set *****
 -------------------------------------------------------------------
 Center     Atomic                   Forces (Hartrees/Bohr)
 Number     Number              X              Y              Z
 -------------------------------------------------------------------
      1        6           0.002102199   -0.022550328   -0.009826851
      2        6           0.025207750   -0.013643170    0.018064320
      3        6          -0.004329520    0.002743290    0.000903678
      4        6          -0.002111335    0.001393980   -0.000967132
      5        6          -0.001137779    0.001611899    0.002294597
      6        6           0.002498598   -0.000119781   -0.005121545
      7        6           0.001450125   -0.003688892    0.001514153
      8        6          -0.004618046    0.002306003    0.000123791
      9        6          -0.000702593   -0.001831798   -0.000645840
     10        6          -0.001222696   -0.005594754   -0.000598261
     11        6          -0.010732486    0.016012241   -0.000497321
     12        6          -0.007678986    0.000396492   -0.006154724
     13        7           0.005331247    0.023330279    0.030200066
     14        7           0.014730185   -0.016867572    0.002879728
     15        8          -0.017883398   -0.014256031   -0.015239836
     16        8           0.001701876    0.013531749   -0.002711104
     17        8          -0.011726891    0.010479253   -0.005853133
     18        1          -0.001815306   -0.000284479    0.000203778
     19        1          -0.000878444   -0.001561459   -0.000207035
     20        1           0.000874585    0.000652167   -0.001581486
     21        1           0.000519853    0.001571866   -0.000034635
     22        1           0.000312132    0.001641099    0.000550320
     23        1           0.001253358    0.000079938    0.001516164
     24        1           0.000816488   -0.001898055   -0.000108969
     25        1           0.001074383   -0.001357839   -0.001093647
     26        1           0.001253732   -0.001536917    0.001794754
     27        1           0.002023062   -0.001141402   -0.000544194
     28        1           0.002766851   -0.001005170   -0.000648871
     29        1          -0.000038979   -0.001554515   -0.001974106
     30        1           0.002188842    0.006566037   -0.000411458
     31        1          -0.000555591   -0.002566435   -0.001831992
     32        1           0.000114034    0.000466842   -0.003049360
     33        1          -0.000313008   -0.000671617    0.002253329
     34        1           0.000479464    0.001287659   -0.002866685
     35        1          -0.003125259    0.000648914    0.000826823
     36        1           0.002237850    0.001904657   -0.003386979
     37        1          -0.001969823    0.002300492    0.000442477
     38        1           0.005624011    0.001639785    0.002340270
     39        1          -0.003720483    0.001565571   -0.000553085
 -------------------------------------------------------------------
 Cartesian Forces:  Max     0.030200066 RMS     0.007068833

 GradGradGradGradGradGradGradGradGradGradGradGradGradGradGradGradGradGrad
 Berny optimization.
 Internal  Forces:  Max     0.031094654 RMS     0.004726322
 Search for a local minimum.
 Step number   1 out of a maximum of  233
 All quantities printed in internal units (Hartrees-Bohrs-Radians)
 Mixed Optimization -- RFO/linear search
 Second derivative matrix not updated -- first step.
 ITU=  0
     Eigenvalues ---    0.00230   0.00230   0.00230   0.00230   0.00263
     Eigenvalues ---    0.00280   0.00495   0.00555   0.00679   0.00881
     Eigenvalues ---    0.00900   0.00912   0.01162   0.01815   0.01882
     Eigenvalues ---    0.01890   0.02710   0.03312   0.03717   0.03911
     Eigenvalues ---    0.03934   0.03951   0.04216   0.04414   0.04558
     Eigenvalues ---    0.04579   0.04780   0.04863   0.04912   0.05428
     Eigenvalues ---    0.05475   0.05617   0.05721   0.06006   0.06483
     Eigenvalues ---    0.07170   0.07306   0.07719   0.07740   0.08161
     Eigenvalues ---    0.08167   0.08175   0.08187   0.08203   0.08312
     Eigenvalues ---    0.08661   0.09311   0.09524   0.12090   0.12114
     Eigenvalues ---    0.12878   0.13074   0.14241   0.16000   0.16000
     Eigenvalues ---    0.16000   0.16000   0.16000   0.16000   0.16057
     Eigenvalues ---    0.16282   0.17526   0.17886   0.20954   0.21858
     Eigenvalues ---    0.22120   0.24977   0.24988   0.24993   0.25000
     Eigenvalues ---    0.25000   0.25000   0.26938   0.27306   0.27463
     Eigenvalues ---    0.27491   0.27762   0.28212   0.29461   0.29529
     Eigenvalues ---    0.29582   0.31553   0.31679   0.33782   0.34016
     Eigenvalues ---    0.34019   0.34022   0.34094   0.34116   0.34138
     Eigenvalues ---    0.34141   0.34155   0.34160   0.34238   0.34279
     Eigenvalues ---    0.34326   0.34328   0.34336   0.34343   0.34385
     Eigenvalues ---    0.34515   0.34722   0.35180   0.36982   0.37094
     Eigenvalues ---    0.42533   0.43360   0.47195   0.75364   0.78193
     Eigenvalues ---    0.85964
 RFO step:  Lambda=-1.83769785D-02 EMin= 2.30000000D-03
 Linear search not attempted -- first point.
 Iteration  1 RMS(Cart)=  0.08554186 RMS(Int)=  0.00350927
 Iteration  2 RMS(Cart)=  0.00547627 RMS(Int)=  0.00044736
 Iteration  3 RMS(Cart)=  0.00002011 RMS(Int)=  0.00044727
 Iteration  4 RMS(Cart)=  0.00000001 RMS(Int)=  0.00044727
 Variable       Old X    -DE/DX   Delta X   Delta X   Delta X     New X
                                 (Linear)    (Quad)   (Total)
    R1        2.94521  -0.01324   0.00000  -0.04603  -0.04603   2.89918
    R2        2.62806  -0.02743   0.00000  -0.05595  -0.05595   2.57211
    R3        2.34851  -0.01016   0.00000  -0.01157  -0.01157   2.33693
    R4        2.92662  -0.00426   0.00000  -0.01439  -0.01439   2.91223
    R5        2.38905  -0.02469   0.00000  -0.03085  -0.03085   2.35819
    R6        2.40517  -0.01438   0.00000  -0.01863  -0.01863   2.38654
    R7        2.87992   0.00600   0.00000   0.02046   0.02046   2.90038
    R8        2.88009   0.00604   0.00000   0.02013   0.02013   2.90022
    R9        2.07069   0.00116   0.00000   0.00322   0.00322   2.07391
   R10        2.07294   0.00180   0.00000   0.00503   0.00503   2.07796
   R11        2.88740   0.00543   0.00000   0.01735   0.01735   2.90475
   R12        2.07092   0.00064   0.00000   0.00178   0.00178   2.07271
   R13        2.07298   0.00165   0.00000   0.00460   0.00460   2.07758
   R14        2.88871   0.00550   0.00000   0.01746   0.01745   2.90616
   R15        2.07303   0.00172   0.00000   0.00480   0.00480   2.07783
   R16        2.07098   0.00059   0.00000   0.00164   0.00164   2.07262
   R17        2.91011   0.00230   0.00000   0.00640   0.00641   2.91651
   R18        2.07135   0.00145   0.00000   0.00403   0.00403   2.07538
   R19        2.07062   0.00097   0.00000   0.00269   0.00269   2.07330
   R20        2.91461   0.00215   0.00000   0.00547   0.00548   2.92009
   R21        2.06931   0.00215   0.00000   0.00597   0.00597   2.07528
   R22        2.07173   0.00040   0.00000   0.00111   0.00111   2.07284
   R23        2.93328  -0.00059   0.00000  -0.00202  -0.00202   2.93127
   R24        2.07700  -0.00008   0.00000  -0.00023  -0.00023   2.07677
   R25        2.75705  -0.00039   0.00000  -0.00101  -0.00101   2.75604
   R26        2.06767   0.00115   0.00000   0.00319   0.00319   2.07086
   R27        2.06470  -0.00358   0.00000  -0.00984  -0.00984   2.05486
   R28        2.06755   0.00173   0.00000   0.00478   0.00478   2.07233
   R29        2.75874   0.00140   0.00000   0.00362   0.00362   2.76235
   R30        2.06783   0.00151   0.00000   0.00417   0.00417   2.07200
   R31        2.05383  -0.00048   0.00000  -0.00129  -0.00129   2.05254
   R32        2.06780   0.00094   0.00000   0.00260   0.00260   2.07040
   R33        2.84734  -0.00696   0.00000  -0.02076  -0.02076   2.82659
   R34        2.06862  -0.00083   0.00000  -0.00231  -0.00231   2.06631
   R35        2.06685  -0.00239   0.00000  -0.00660  -0.00660   2.06025
   R36        2.84970  -0.00141   0.00000  -0.00421  -0.00421   2.84549
   R37        2.06129  -0.00054   0.00000  -0.00148  -0.00148   2.05981
   R38        1.94950   0.00282   0.00000   0.00636   0.00636   1.95586
   R39        1.93928   0.00026   0.00000   0.00059   0.00059   1.93987
    A1        2.10886  -0.00474   0.00000  -0.01740  -0.01757   2.09129
    A2        2.06907  -0.00868   0.00000  -0.03213  -0.03230   2.03677
    A3        2.10494   0.01344   0.00000   0.05034   0.05017   2.15511
    A4        2.05241  -0.01221   0.00000  -0.04542  -0.04845   2.00396
    A5        2.00405  -0.00405   0.00000  -0.01501  -0.01804   1.98601
    A6        2.22672   0.01626   0.00000   0.06067   0.05760   2.28432
    A7        1.94415  -0.00098   0.00000  -0.00183  -0.00187   1.94227
    A8        1.91489   0.00079   0.00000   0.00708   0.00707   1.92196
    A9        1.91074   0.00003   0.00000  -0.00304  -0.00304   1.90770
   A10        1.91489   0.00059   0.00000   0.00606   0.00605   1.92094
   A11        1.91065   0.00014   0.00000  -0.00296  -0.00297   1.90769
   A12        1.86690  -0.00056   0.00000  -0.00548  -0.00547   1.86143
   A13        1.94818   0.00053   0.00000   0.00401   0.00402   1.95220
   A14        1.91350   0.00106   0.00000   0.01119   0.01120   1.92470
   A15        1.91136  -0.00030   0.00000  -0.00181  -0.00181   1.90956
   A16        1.91284  -0.00102   0.00000  -0.00664  -0.00670   1.90615
   A17        1.91022  -0.00007   0.00000  -0.00242  -0.00243   1.90779
   A18        1.86591  -0.00023   0.00000  -0.00474  -0.00476   1.86115
   A19        1.95015   0.00034   0.00000   0.00241   0.00241   1.95256
   A20        1.91130  -0.00027   0.00000  -0.00192  -0.00192   1.90938
   A21        1.91283   0.00104   0.00000   0.01113   0.01115   1.92397
   A22        1.90935   0.00015   0.00000   0.00046   0.00045   1.90981
   A23        1.91247  -0.00099   0.00000  -0.00724  -0.00727   1.90520
   A24        1.86581  -0.00031   0.00000  -0.00519  -0.00520   1.86060
   A25        1.95373  -0.00150   0.00000  -0.00865  -0.00862   1.94511
   A26        1.89468   0.00139   0.00000   0.00920   0.00914   1.90383
   A27        1.89515   0.00125   0.00000   0.01331   0.01328   1.90843
   A28        1.92569  -0.00046   0.00000  -0.00773  -0.00772   1.91797
   A29        1.91805   0.00007   0.00000   0.00018   0.00021   1.91826
   A30        1.87450  -0.00068   0.00000  -0.00582  -0.00590   1.86859
   A31        1.95138  -0.00139   0.00000  -0.00845  -0.00841   1.94297
   A32        1.88942   0.00055   0.00000   0.00667   0.00665   1.89606
   A33        1.89512   0.00203   0.00000   0.01636   0.01632   1.91144
   A34        1.93291   0.00055   0.00000   0.00364   0.00365   1.93656
   A35        1.92372  -0.00081   0.00000  -0.00892  -0.00889   1.91483
   A36        1.86884  -0.00087   0.00000  -0.00880  -0.00887   1.85997
   A37        1.91847   0.00269   0.00000   0.01267   0.01262   1.93109
   A38        1.95745  -0.00117   0.00000  -0.00491  -0.00489   1.95257
   A39        1.85027   0.00007   0.00000   0.00640   0.00621   1.85647
   A40        1.99067  -0.00141   0.00000  -0.00548  -0.00546   1.98522
   A41        1.86753   0.00055   0.00000   0.01068   0.01053   1.87806
   A42        1.87105  -0.00066   0.00000  -0.01865  -0.01862   1.85243
   A43        1.89842   0.00311   0.00000   0.01840   0.01828   1.91669
   A44        1.96379  -0.00979   0.00000  -0.05672  -0.05653   1.90726
   A45        1.89591   0.00460   0.00000   0.02656   0.02651   1.92242
   A46        1.89568   0.00287   0.00000   0.01447   0.01459   1.91026
   A47        1.91048  -0.00272   0.00000  -0.01139  -0.01174   1.89873
   A48        1.89915   0.00196   0.00000   0.00898   0.00923   1.90838
   A49        1.89256   0.00386   0.00000   0.02271   0.02258   1.91515
   A50        1.98286  -0.00500   0.00000  -0.02976  -0.02961   1.95325
   A51        1.89449   0.00455   0.00000   0.02607   0.02595   1.92044
   A52        1.89278   0.00005   0.00000  -0.00099  -0.00085   1.89193
   A53        1.90622  -0.00301   0.00000  -0.01306  -0.01347   1.89275
   A54        1.89396  -0.00052   0.00000  -0.00509  -0.00492   1.88904
   A55        1.99599  -0.03109   0.00000  -0.13350  -0.13300   1.86299
   A56        1.88829   0.00954   0.00000   0.03262   0.03091   1.91919
   A57        1.92327   0.00903   0.00000   0.04268   0.04383   1.96710
   A58        1.86972   0.00702   0.00000   0.01496   0.01423   1.88396
   A59        1.86617   0.01116   0.00000   0.05372   0.05462   1.92079
   A60        1.91925  -0.00565   0.00000  -0.00992  -0.01151   1.90774
   A61        1.96989   0.00424   0.00000   0.01508   0.01480   1.98469
   A62        1.88447  -0.01272   0.00000  -0.08003  -0.07967   1.80480
   A63        1.93138   0.00354   0.00000   0.03168   0.03182   1.96320
   A64        1.92140   0.00662   0.00000   0.02123   0.02094   1.94233
   A65        1.93403  -0.00443   0.00000  -0.00969  -0.01033   1.92370
   A66        1.81579   0.00244   0.00000   0.02018   0.02060   1.83639
   A67        2.08120  -0.00278   0.00000  -0.01043  -0.01044   2.07076
   A68        2.19795   0.00480   0.00000   0.01785   0.01784   2.21579
   A69        2.00334  -0.00203   0.00000  -0.00762  -0.00763   1.99571
   A70        2.07627  -0.00235   0.00000  -0.01385  -0.01398   2.06229
   A71        1.83108  -0.00290   0.00000  -0.01918  -0.01901   1.81207
   A72        1.93480   0.00179   0.00000   0.00001  -0.00032   1.93449
   A73        1.89834   0.00472   0.00000   0.03893   0.03897   1.93731
   A74        1.92193  -0.00129   0.00000  -0.01481  -0.01503   1.90689
   A75        1.77415   0.00059   0.00000   0.01560   0.01562   1.78978
    D1        1.66842  -0.00103   0.00000   0.00669   0.00709   1.67551
    D2       -2.48693   0.00116   0.00000  -0.01272  -0.01203  -2.49896
    D3       -0.51025  -0.00112   0.00000  -0.01646  -0.01653  -0.52678
    D4       -1.50026   0.00003   0.00000   0.04123   0.04095  -1.45930
    D5        0.62758   0.00222   0.00000   0.02183   0.02183   0.64942
    D6        2.60426  -0.00006   0.00000   0.01808   0.01733   2.62159
    D7       -3.12363   0.00063   0.00000   0.02436   0.02482  -3.09881
    D8        0.06029   0.00088   0.00000   0.03091   0.03140   0.09169
    D9        0.04560  -0.00010   0.00000  -0.00959  -0.01008   0.03552
   D10       -3.05366   0.00014   0.00000  -0.00304  -0.00350  -3.05716
   D11       -2.90841  -0.00254   0.00000  -0.08118  -0.08087  -2.98928
   D12        1.29294   0.00147   0.00000  -0.03887  -0.03831   1.25463
   D13       -0.80587  -0.00291   0.00000  -0.07231  -0.07275  -0.87862
   D14        0.23139   0.00013   0.00000   0.04796   0.04798   0.27937
   D15       -1.85044   0.00414   0.00000   0.09026   0.09054  -1.75990
   D16        2.33393  -0.00024   0.00000   0.05683   0.05610   2.39004
   D17        0.95317  -0.00023   0.00000  -0.00572  -0.00573   0.94744
   D18        3.07610  -0.00045   0.00000  -0.00378  -0.00376   3.07233
   D19       -1.16498  -0.00029   0.00000  -0.00408  -0.00408  -1.16906
   D20        3.07696   0.00041   0.00000   0.00554   0.00553   3.08249
   D21       -1.08330   0.00019   0.00000   0.00748   0.00750  -1.07580
   D22        0.95881   0.00035   0.00000   0.00718   0.00718   0.96599
   D23       -1.16247   0.00021   0.00000   0.00124   0.00122  -1.16125
   D24        0.96045  -0.00001   0.00000   0.00317   0.00319   0.96364
   D25        3.00256   0.00015   0.00000   0.00288   0.00287   3.00543
   D26       -0.95330   0.00027   0.00000   0.00460   0.00461  -0.94870
   D27        1.16502   0.00050   0.00000   0.00545   0.00545   1.17047
   D28       -3.07661   0.00057   0.00000   0.00450   0.00449  -3.07212
   D29       -3.07709  -0.00049   0.00000  -0.00725  -0.00724  -3.08434
   D30       -0.95877  -0.00026   0.00000  -0.00640  -0.00640  -0.96517
   D31        1.08279  -0.00018   0.00000  -0.00735  -0.00736   1.07543
   D32        1.16240  -0.00024   0.00000  -0.00240  -0.00239   1.16001
   D33       -3.00247   0.00000   0.00000  -0.00155  -0.00155  -3.00401
   D34       -0.96091   0.00007   0.00000  -0.00250  -0.00251  -0.96342
   D35       -0.96727   0.00043   0.00000   0.00484   0.00485  -0.96241
   D36        1.16260  -0.00017   0.00000  -0.00418  -0.00421   1.15839
   D37       -3.08786   0.00046   0.00000   0.00114   0.00117  -3.08669
   D38       -3.09057  -0.00056   0.00000  -0.00740  -0.00737  -3.09794
   D39       -0.96071  -0.00116   0.00000  -0.01642  -0.01644  -0.97714
   D40        1.07203  -0.00053   0.00000  -0.01111  -0.01106   1.06097
   D41        1.15155   0.00035   0.00000   0.00356   0.00356   1.15511
   D42       -3.00177  -0.00025   0.00000  -0.00546  -0.00551  -3.00728
   D43       -0.96904   0.00038   0.00000  -0.00015  -0.00013  -0.96916
   D44        0.96463  -0.00030   0.00000  -0.00136  -0.00138   0.96325
   D45        3.09845  -0.00012   0.00000   0.00231   0.00229   3.10074
   D46       -1.16155   0.00022   0.00000   0.00416   0.00420  -1.15736
   D47       -1.15482  -0.00028   0.00000  -0.00083  -0.00085  -1.15567
   D48        0.97900  -0.00011   0.00000   0.00284   0.00283   0.98182
   D49        3.00218   0.00024   0.00000   0.00469   0.00473   3.00691
   D50        3.08814   0.00057   0.00000   0.00933   0.00930   3.09744
   D51       -1.06123   0.00075   0.00000   0.01301   0.01297  -1.04825
   D52        0.96196   0.00109   0.00000   0.01485   0.01488   0.97684
   D53        0.95809   0.00093   0.00000   0.00667   0.00671   0.96480
   D54       -3.09102   0.00031   0.00000   0.00569   0.00571  -3.08531
   D55       -1.05450  -0.00106   0.00000  -0.01546  -0.01547  -1.06997
   D56       -1.15393   0.00050   0.00000   0.00615   0.00617  -1.14776
   D57        1.08014  -0.00012   0.00000   0.00517   0.00517   1.08531
   D58        3.11667  -0.00149   0.00000  -0.01597  -0.01601   3.10065
   D59        3.06544   0.00157   0.00000   0.01790   0.01793   3.08336
   D60       -0.98368   0.00095   0.00000   0.01692   0.01693  -0.96675
   D61        1.05284  -0.00042   0.00000  -0.00423  -0.00425   1.04859
   D62       -0.95577  -0.00107   0.00000  -0.00882  -0.00887  -0.96464
   D63        3.11183  -0.00063   0.00000  -0.00839  -0.00842   3.10341
   D64        1.04585   0.00066   0.00000   0.01084   0.01088   1.05673
   D65       -3.06449  -0.00121   0.00000  -0.01408  -0.01412  -3.07861
   D66        1.00311  -0.00077   0.00000  -0.01366  -0.01367   0.98944
   D67       -1.06287   0.00052   0.00000   0.00558   0.00563  -1.05724
   D68        1.15387   0.00002   0.00000   0.00015   0.00012   1.15399
   D69       -1.06171   0.00047   0.00000   0.00058   0.00057  -1.06114
   D70       -3.12770   0.00175   0.00000   0.01981   0.01987  -3.10782
   D71       -1.15195  -0.00535   0.00000  -0.05208  -0.05210  -1.20405
   D72        3.02433   0.00337   0.00000   0.02501   0.02511   3.04944
   D73        1.02527  -0.00091   0.00000  -0.00634  -0.00636   1.01890
   D74        1.04326  -0.00380   0.00000  -0.04338  -0.04343   0.99983
   D75       -1.06364   0.00492   0.00000   0.03372   0.03377  -1.02987
   D76       -3.06270   0.00064   0.00000   0.00237   0.00230  -3.06041
   D77        3.10724  -0.00440   0.00000  -0.04589  -0.04591   3.06132
   D78        1.00034   0.00432   0.00000   0.03121   0.03129   1.03163
   D79       -0.99873   0.00004   0.00000  -0.00014  -0.00018  -0.99891
   D80        2.18697  -0.00053   0.00000  -0.00297  -0.00320   2.18378
   D81       -0.99237  -0.00058   0.00000  -0.00819  -0.00834  -1.00071
   D82        0.08582  -0.00001   0.00000   0.00248   0.00238   0.08820
   D83       -3.09352  -0.00006   0.00000  -0.00274  -0.00276  -3.09628
   D84       -2.01800   0.00063   0.00000   0.00921   0.00941  -2.00859
   D85        1.08584   0.00058   0.00000   0.00399   0.00427   1.09011
   D86        2.06062  -0.00052   0.00000  -0.00387  -0.00411   2.05651
   D87       -1.04030  -0.00026   0.00000   0.00252   0.00232  -1.03798
   D88       -0.04506  -0.00009   0.00000   0.00060   0.00057  -0.04449
   D89        3.13721   0.00017   0.00000   0.00699   0.00700  -3.13898
   D90       -2.15361   0.00061   0.00000   0.00796   0.00817  -2.14543
   D91        1.02867   0.00087   0.00000   0.01435   0.01460   1.04327
   D92       -2.72691  -0.00033   0.00000   0.02146   0.02070  -2.70622
   D93       -0.59999   0.00198   0.00000   0.04802   0.04731  -0.55267
   D94        1.30194   0.00197   0.00000   0.05643   0.05569   1.35764
   D95       -0.63467  -0.00255   0.00000  -0.00920  -0.00904  -0.64371
   D96        1.49226  -0.00024   0.00000   0.01736   0.01757   1.50983
   D97       -2.88899  -0.00025   0.00000   0.02578   0.02595  -2.86304
   D98        1.42228   0.00013   0.00000   0.01422   0.01475   1.43703
   D99       -2.73398   0.00244   0.00000   0.04078   0.04137  -2.69262
   D100      -0.83205   0.00243   0.00000   0.04919   0.04975  -0.78230
   D101       3.04086  -0.00055   0.00000   0.02965   0.02947   3.07033
   D102       0.94797   0.00109   0.00000   0.03283   0.03283   0.98080
   D103      -0.98213  -0.00142   0.00000   0.00168   0.00171  -0.98042
   D104      -1.08485   0.00055   0.00000   0.00936   0.00919  -1.07566
   D105       3.10545   0.00219   0.00000   0.01254   0.01255   3.11800
   D106       1.17535  -0.00031   0.00000  -0.01861  -0.01857   1.15678
   D107       0.98819  -0.00007   0.00000   0.01953   0.01949   1.00769
   D108      -1.10469   0.00157   0.00000   0.02271   0.02285  -1.08184
   D109      -3.03479  -0.00093   0.00000  -0.00844  -0.00827  -3.04306
         Item               Value     Threshold  Converged?
 Maximum Force            0.031095     0.000450     NO 
 RMS     Force            0.004726     0.000300     NO 
 Maximum Displacement     0.518754     0.001800     NO 
 RMS     Displacement     0.085388     0.001200     NO 
 Predicted change in Energy=-1.033635D-02
 GradGradGradGradGradGradGradGradGradGradGradGradGradGradGradGradGradGrad

                          Input orientation:                          
 ---------------------------------------------------------------------
 Center     Atomic      Atomic             Coordinates (Angstroms)
 Number     Number       Type             X           Y           Z
 ---------------------------------------------------------------------
      1          6           0        2.991031   -4.955092   -2.546974
      2          6           0        6.288993   -2.384278   -0.305106
      3          6           0       -0.831279   -1.996239   -1.677806
      4          6           0       -0.107975   -1.593683   -2.970258
      5          6           0        0.144151   -2.077719   -0.495734
      6          6           0        1.078194   -2.522547   -3.275192
      7          6           0        1.330644   -3.009194   -0.795130
      8          6           0        2.063204   -2.587977   -2.088849
      9          6           0        2.420819   -6.908072   -3.867443
     10          6           0        2.897003   -4.821515   -5.067886
     11          6           0        4.924195   -2.088376   -0.956801
     12          6           0        3.304413   -3.459014   -2.415639
     13          7           0        2.769853   -5.494930   -3.776714
     14          7           0        4.315161   -3.410575   -1.300570
     15          8           0        6.855658   -1.392387    0.197191
     16          8           0        2.947792   -5.607929   -1.497574
     17          8           0        6.702836   -3.561179   -0.501482
     18          1           0       -1.633263   -1.280822   -1.455486
     19          1           0       -1.312399   -2.974709   -1.820159
     20          1           0       -0.805345   -1.609009   -3.816707
     21          1           0        0.254083   -0.559587   -2.879416
     22          1           0        0.519522   -1.071031   -0.261922
     23          1           0       -0.376084   -2.434459    0.401499
     24          1           0        0.698125   -3.527838   -3.501183
     25          1           0        1.597922   -2.165518   -4.173044
     26          1           0        2.013284   -2.995532    0.065008
     27          1           0        0.971074   -4.040876   -0.892732
     28          1           0        2.437997   -1.565554   -1.940746
     29          1           0        1.482162   -7.024144   -4.420922
     30          1           0        2.302907   -7.313789   -2.865495
     31          1           0        3.210585   -7.459279   -4.391883
     32          1           0        3.675230   -5.310831   -5.665507
     33          1           0        3.159859   -3.773763   -4.954457
     34          1           0        1.950468   -4.880032   -5.616527
     35          1           0        5.067519   -1.531512   -1.886845
     36          1           0        4.257074   -1.528740   -0.300768
     37          1           0        3.822824   -3.063486   -3.289091
     38          1           0        5.131041   -4.010867   -1.513187
     39          1           0        3.920077   -3.858729   -0.465800
 ---------------------------------------------------------------------
                    Distance matrix (angstroms):
                    1          2          3          4          5
     1  C    0.000000
     2  C    4.744640   0.000000
     3  C    4.911244   7.261760   0.000000
     4  C    4.591522   6.974903   1.534813   0.000000
     5  C    4.537796   6.155437   1.534730   2.533994   0.000000
     6  C    3.179076   5.999413   2.544548   1.537130   2.965754
     7  C    3.100381   5.021541   2.545408   2.967233   1.537872
     8  C    2.583404   4.591353   2.982808   2.545490   2.545810
     9  C    2.425471   6.936693   6.284644   5.953357   6.315374
    10  C    2.526199   6.334808   5.777102   4.883526   6.000932
    11  C    3.805764   1.541083   5.801191   5.442560   4.802242
    12  C    1.534179   3.810135   4.448376   3.928288   3.947312
    13  N    1.361104   5.840596   5.441911   4.914467   5.416316
    14  N    2.385870   2.437262   5.350560   5.064887   4.452145
    15  O    5.929473   1.247902   7.935317   7.652806   6.781899
    16  O    1.236652   4.793488   5.230503   5.255538   4.618059
    17  O    4.461449   1.262903   7.784322   7.506866   6.724362
    18  H    6.006305   8.081035   1.097463   2.172307   2.171490
    19  H    4.792670   7.773362   1.099611   2.163469   2.163384
    20  H    5.217371   7.953743   2.173826   1.096831   3.485699
    21  H    5.188629   6.810045   2.164682   1.099406   2.828207
    22  H    5.139625   5.917202   2.164579   2.828781   1.099542
    23  H    5.136589   6.702616   2.173189   3.485331   1.096784
    24  H    2.864435   6.540676   2.830119   2.161628   3.382670
    25  H    3.516615   6.083991   3.486529   2.164203   3.955221
    26  H    3.408565   4.335009   3.482460   3.959515   2.156496
    27  H    2.766321   5.600882   2.836433   3.386622   2.166886
    28  H    3.487453   4.263309   3.307989   2.746389   2.759004
    29  H    3.173223   7.846905   6.177096   5.841478   6.454804
    30  H    2.477584   6.836999   6.285703   6.208296   6.139416
    31  H    3.118148   7.206523   7.317628   6.887603   7.317390
    32  H    3.212464   6.643069   6.870000   5.949302   7.046140
    33  H    2.687008   5.773960   5.461247   4.400970   5.643694
    34  H    3.242000   7.298136   5.618532   4.694679   6.110505
    35  H    4.058136   2.172811   5.920767   5.288041   5.145201
    36  H    4.288146   2.204691   5.292081   5.117035   4.153978
    37  H    2.195630   3.930328   5.039438   4.208700   4.723052
    38  H    2.557326   2.333689   6.295640   5.950892   5.444387
    39  H    2.529115   2.794923   5.245303   5.256228   4.174987
                    6          7          8          9         10
     6  C    0.000000
     7  C    2.539934   0.000000
     8  C    1.543352   1.545244   0.000000
     9  C    4.624525   5.082207   4.685563   0.000000
    10  C    3.436142   4.898411   3.815570   2.453882   0.000000
    11  C    4.511671   3.713174   3.117115   6.161834   5.336720
    12  C    2.563563   2.593097   1.551159   3.845058   3.009453
    13  N    3.456631   4.140054   3.434911   1.458432   1.461774
    14  N    3.894314   3.053509   2.523759   4.733904   4.265512
    15  O    6.834750   5.841622   5.442704   8.161606   7.426366
    16  O    4.021804   3.140385   3.201908   2.753969   3.656249
    17  O    6.356794   5.408453   4.999304   6.392734   6.076583
    18  H    3.493595   3.494007   3.971608   7.342959   6.790379
    19  H    2.834873   2.835057   3.408292   5.796519   5.628276
    20  H    2.162292   3.956374   3.488903   6.204093   5.058954
    21  H    2.165412   3.391727   2.830598   6.780428   5.471604
    22  H    3.390989   2.167650   2.832268   7.119393   6.543381
    23  H    3.954838   2.162212   3.489345   6.786732   6.806270
    24  H    1.098242   2.826976   2.177491   3.811535   2.993864
    25  H    1.097144   3.491924   2.176885   4.823108   3.089122
    26  H    3.500721   1.098190   2.192645   5.562213   5.519219
    27  H    2.827174   1.096897   2.175858   4.378524   4.663744
    28  H    2.132052   2.150062   1.098978   5.679344   4.537727
    29  H    4.662645   5.411945   5.045369   1.095851   2.696648
    30  H    4.962235   4.874550   4.795199   1.087387   3.378596
    31  H    5.492305   6.022796   5.509086   1.096630   2.741006
    32  H    4.498081   5.874963   4.775463   2.712519   1.096457
    33  H    2.952762   4.607667   3.289445   3.398775   1.086159
    34  H    3.435178   5.208655   4.208413   2.719094   1.095609
    35  H    4.338706   4.164087   3.191055   6.311511   5.065005
    36  H    4.465438   3.316645   3.021967   6.710455   5.951267
    37  H    2.797464   3.526153   2.182419   4.132911   2.666819
    38  H    4.663189   3.995244   3.430397   4.613200   4.275975
    39  H    4.213593   2.745056   2.774360   4.808059   4.811739
                   11         12         13         14         15
    11  C    0.000000
    12  C    2.574986   0.000000
    13  N    4.919118   2.506638   0.000000
    14  N    1.495765   1.505768   3.586614   0.000000
    15  O    2.355132   4.869207   7.022577   3.573583   0.000000
    16  O    4.072575   2.363865   2.288867   2.595549   5.992866
    17  O    2.353727   3.901758   5.471279   2.522343   2.283672
    18  H    6.625789   5.481519   6.521827   6.320094   8.649021
    19  H    6.358151   4.680181   5.181158   5.668278   8.560993
    20  H    6.421565   4.719705   5.280532   5.982990   8.651548
    21  H    5.276703   4.233944   5.611760   5.207038   7.330748
    22  H    4.573729   4.254007   6.081828   4.578114   6.360871
    23  H    5.482492   4.746792   6.059774   5.085039   7.309292
    24  H    5.138639   2.824160   2.870091   4.235493   7.493553
    25  H    4.627555   2.770147   3.551828   4.145439   6.880442
    26  H    3.215654   2.834685   4.645236   2.708450   5.102561
    27  H    4.409482   2.846450   3.696922   3.427321   6.544521
[...]
 41931,0.00065625,0.00269203,-0.00316902,0.00157740,-0.00001486,-0.0000
 0017,0.00000700,-0.00003009,0.00001210,-0.00002452,-0.00001586,0.00001
 407,-0.00004882,-0.00004147,0.00026376,0.00000584,0.00006668,0.0001167
 6,0.00020138,-0.00000515,-0.00006734,-0.00016823,0.00000142,0.00003729
 ,-0.00000097,-0.00000502,-0.00005350,0.00003386,0.04330145,-0.17804323
 ,0.12639206,0.00150922,0.00088999,0.00255609,-0.00001190,0.00001006,-0
 .00020681,0.00307679,-0.02567664,0.01791154,-0.00084287,0.00094375,-0.
 00053630,-0.00052432,-0.00014028,-0.00083913,0.00076131,0.00134704,-0.
 00009578,0.00000411,-0.00000084,-0.00000605,0.00000025,0.00000215,0.00
 000110,0.00000361,0.00000158,0.00000397,-0.00000035,0.00000273,-0.0000
 0618,-0.00000195,0.00000472,0.00000743,0.00001442,-0.00000669,-0.00000
 406,0.00007716,-0.00000647,0.00008688,-0.00000939,-0.00000832,0.000002
 06,0.00000091,-0.00002449,-0.00007699,0.00006703,0.00003741,-0.0000736
 9,-0.00032135,0.00072078,0.00004262,-0.00000354,-0.00000525,-0.0000114
 2,0.00000626,0.00001743,0.00000406,0.00000221,-0.00000839,-0.00000384,
 0.00000615,0.00001196,-0.00001548,0.00000578,0.00000867,-0.00000236,-0
 .00000283,0.00000634,-0.00001590,-0.04690955,0.19965134,0.00000596,-0.
 00002979,0.00026273,0.00163991,-0.00224328,0.00246792,0.00000743,0.000
 01176,0.00000622,0.00003146,-0.00000557,0.00000514,0.00003377,-0.00000
 192,-0.00002207,-0.00000543,-0.00018636,-0.00000114,0.00005827,-0.0000
 4138,-0.00010483,-0.00059405,-0.00004907,-0.00005197,-0.00000498,0.000
 01641,0.00000526,0.00000090,-0.00003608,0.00001583,-0.04625281,0.13453
 691,-0.18000544,-0.00145604,-0.00056125,0.00128977,0.00001896,0.000012
 57,-0.00011275,0.00323605,-0.01076578,0.00819153,-0.00094664,-0.000223
 68,0.00013231,-0.00019648,-0.00015294,-0.00021828,0.00018778,0.0003515
 0,-0.00072625,-0.00000852,0.00000080,-0.00000210,0.00000007,-0.0000046
 7,-0.00000192,-0.00000846,0.00000030,-0.00000477,0.,-0.00000035,0.0000
 0642,-0.00000331,0.00000051,-0.00000458,-0.00001102,-0.00000142,0.0000
 0549,-0.00004983,0.00000492,-0.00008016,-0.00000567,0.00001703,-0.0000
 3528,-0.00002271,-0.00001967,0.00000217,-0.00001139,-0.00002737,0.0000
 6935,-0.00020077,-0.00058100,0.00024230,-0.00000032,0.00000100,-0.0000
 0406,0.00000301,0.00000544,0.00000406,0.00000240,-0.00000094,0.0000016
 3,0.00000586,0.00001093,-0.00000735,0.00000494,0.00002044,-0.00000935,
 0.00000286,0.00001138,-0.00000022,0.05294301,-0.13860775,0.18694312,-0
 .00050914,0.00053717,-0.00051130,-0.00342112,0.00701060,0.02959488,0.0
 0002932,-0.00004519,-0.00004152,-0.00000364,0.00001151,-0.00001798,-0.
 00001745,0.00005383,0.00013441,-0.00003357,0.00006723,0.00004869,-0.00
 029060,0.00011902,-0.00042479,0.00025652,0.00001556,0.00002364,0.00006
 715,0.00001528,-0.00005498,-0.00001377,-0.00002837,0.00005364,-0.08520
 839,0.02493105,0.10194817,0.00034715,-0.00234304,-0.00049025,-0.000048
 45,-0.00029763,-0.00005257,0.00435953,-0.00864714,-0.01758153,0.001083
 94,-0.00026358,-0.00386724,0.00002722,-0.00013000,0.00019683,-0.005119
 74,0.00411521,-0.00243960,0.00002013,-0.00001065,0.00002441,-0.0000015
 8,0.00000423,0.00000162,-0.00000218,-0.00000188,0.00000755,-0.00000387
 ,-0.00000053,-0.00000194,-0.00000329,-0.00000607,-0.00000138,0.0000078
 9,0.00000588,-0.00000888,0.00003252,-0.00000264,0.00002458,0.00001361,
 -0.00001319,0.00003624,-0.00014751,-0.00023350,0.00037262,0.00012944,-
 0.00000366,0.00010516,-0.00011822,0.00017538,-0.00019532,-0.00000620,-
 0.00001102,-0.00000721,0.00000306,0.00000394,0.00000921,-0.00000987,-0
 .00003596,-0.00000755,0.00000351,-0.00000103,-0.00001591,-0.00000106,0
 .00000033,0.00000986,-0.00000516,-0.00000185,-0.00001533,0.00367648,-0
 .00222352,-0.00832714,0.08711000,-0.00035210,0.00067565,-0.00057990,0.
 00370721,-0.00235309,-0.00508223,0.00002754,-0.00001416,-0.00002553,0.
 00000157,-0.00001973,-0.00005518,0.00000952,0.00000896,0.00010727,-0.0
 0006846,0.00000682,0.00013810,-0.00009026,0.00020165,-0.00031275,0.000
 07563,0.00026819,-0.00018560,0.00008093,0.00005903,-0.00008178,-0.0000
 1932,-0.00005001,0.00009407,0.02199364,-0.06351878,-0.05803837,0.00144
 318,-0.00229388,0.00076485,-0.00012780,-0.00039869,-0.00006743,0.00851
 903,-0.01499717,-0.02812591,-0.00159627,0.00025865,0.00092207,-0.00005
 231,-0.00011140,0.00003020,0.00080419,0.00087763,0.00113983,0.00000081
 ,-0.00000374,0.00001653,-0.00000261,-0.00000233,-0.00000168,-0.0000272
 3,0.00001465,0.00000162,-0.00000140,0.00000392,0.00000585,-0.00000180,
 -0.00000738,-0.00000636,-0.00001782,0.00000756,0.00000345,0.00000167,-
 0.00001037,-0.00001877,0.00001630,-0.00000827,0.00000659,-0.00015191,-
 0.00011516,0.00020757,0.00008319,-0.00001719,0.00007130,-0.00033413,-0
 .00004127,0.00003329,-0.00001385,-0.00002641,-0.00001411,0.00000476,0.
 00000898,0.00001276,-0.00001254,-0.00005182,-0.00001414,0.00000823,-0.
 00000469,-0.00002890,-0.00000386,-0.00000373,0.00002507,-0.00000887,-0
 .00000051,-0.00002762,-0.00867725,0.00809179,0.02080610,-0.02268729,0.
 07558431,-0.00024331,0.00047293,-0.00002662,-0.00169445,-0.00038178,0.
 00447573,0.00000802,-0.00000103,-0.00000404,-0.00001247,-0.00000801,-0
 .00002938,-0.00001096,-0.00000040,0.00003265,-0.00001997,0.00016525,0.
 00005549,-0.00009209,0.00005071,-0.00002963,0.00014472,-0.00043616,-0.
 00014416,0.00004465,0.00005432,-0.00004505,-0.00000402,-0.00003432,0.0
 0005563,0.09081431,-0.06578580,-0.27890450,0.00032168,-0.00113672,0.00
 030106,-0.00008779,-0.00023184,-0.00011600,0.00149399,-0.00080063,-0.0
 0392488,0.00039722,0.00078378,0.00036046,-0.00004746,-0.00025577,-0.00
 005756,-0.00023937,0.00130146,-0.00020244,0.00000068,-0.00000212,0.000
 00515,-0.00000009,-0.00000039,0.00000171,-0.00001036,0.00000755,0.0000
 0188,-0.00000268,0.00000374,-0.00000148,-0.00000832,0.00001104,0.00000
 094,-0.00000258,0.00000544,0.00000230,0.00003231,-0.00000669,0.0000368
 4,0.00000856,-0.00001010,0.00000903,-0.00003755,-0.00014611,0.00010127
 ,0.00003884,0.00000238,0.00000547,0.00016161,0.00025184,-0.00009620,-0
 .00000846,-0.00001672,-0.00001247,0.00000648,0.00001072,0.00001112,-0.
 00000546,-0.00003270,-0.00000862,0.00000508,-0.00000187,-0.00002379,-0
 .00000315,-0.00000327,0.00000972,-0.00000627,0.00000037,-0.00002103,0.
 00839373,-0.00562434,-0.01755900,-0.09826910,0.07076431,0.29453541,-0.
 00197968,0.00206519,0.00625555,0.00028212,-0.00038160,-0.00021232,0.00
 027083,-0.00013882,0.00020939,0.00013531,0.00023039,-0.00016316,-0.000
 36932,-0.00106853,0.00138714,0.00085747,-0.00094824,0.00130628,-0.0028
 0422,0.00473430,-0.00129541,-0.01457321,-0.00970901,0.02107199,-0.0000
 1440,0.00001642,-0.00022874,0.00007003,-0.00097346,0.00034343,0.001153
 37,0.00127098,0.00016339,-0.11718127,-0.05871101,0.11150656,-0.0002072
 6,-0.00052352,-0.00070016,0.00737599,0.01077293,-0.02707327,-0.0000005
 4,0.00019664,0.00006069,0.00064268,-0.00207544,-0.00005908,-0.00000708
 ,0.00013193,0.00044548,-0.00002511,0.00004890,-0.00013388,-0.00001618,
 -0.00001940,-0.00002798,0.00003542,0.00000612,-0.00003298,0.00000394,-
 0.00001964,0.00000796,-0.00000180,0.00010724,-0.00000335,-0.00055883,0
 .00040509,0.00012871,-0.00002976,0.00001460,-0.00009710,-0.00037024,0.
 00051041,-0.00093610,0.00021925,0.00002668,0.00012561,0.00014544,-0.00
 011548,-0.00028330,0.00123824,0.00008735,-0.00047610,-0.00002036,-0.00
 002855,-0.00002806,0.00004992,0.00012232,0.00003692,-0.00000179,-0.000
 03399,-0.00001276,0.00009777,0.00034720,-0.00003813,0.00080175,-0.0002
 2614,-0.00127916,0.00008249,0.00027594,-0.00001898,0.00021058,-0.00014
 496,0.00057847,0.00003888,-0.00007415,0.00006028,0.12632825,-0.0125648
 9,-0.00400171,0.02758869,-0.00033626,0.00012144,0.00006385,-0.00008863
 ,0.00004398,-0.00014143,-0.00017207,-0.00012393,-0.00024356,0.00045046
 ,0.00063378,-0.00078736,-0.00052377,0.00081504,-0.00050020,0.00265861,
 -0.00220896,0.00072748,0.01112125,0.00737445,-0.01553968,0.00042622,-0
 .00010403,-0.00018474,-0.00029979,-0.00101062,-0.00018770,0.00039458,0
 .00080303,-0.00072026,-0.05431811,-0.09328642,0.08340036,0.00047783,0.
 00003036,-0.00106308,0.00021957,0.00129488,-0.00333185,0.00017375,0.00
 003468,0.00003171,-0.00054206,-0.00911640,0.00053642,0.00013735,-0.000
 12594,-0.00015353,0.00000977,-0.00001679,0.00005912,0.00000893,0.00000
 945,0.00001336,-0.00008553,0.00004014,0.00003484,0.00001638,-0.0000097
 7,-0.00000017,-0.00004428,-0.00002565,0.00001465,0.00033048,-0.0002391
 5,-0.00008358,-0.00003674,-0.00004458,0.00010676,-0.00014301,-0.000066
 92,0.00032812,-0.00029604,-0.00006489,0.00007238,0.00020838,0.00008796
 ,-0.00005352,-0.00067811,0.00082067,-0.00020435,-0.00001038,0.00010129
 ,-0.00006773,0.00012094,0.00023120,0.00012369,-0.00002028,-0.00014278,
 -0.00000267,0.00010588,0.00028709,-0.00012041,-0.00056962,0.00027484,-
 0.00221838,0.00009962,0.00044491,-0.00005080,0.00011243,-0.00022399,-0
 .00001972,0.00004988,-0.00006068,0.00010591,0.05429434,0.09816706,-0.0
 0318965,0.00177820,0.00660647,-0.00001206,-0.00007693,0.00003020,-0.00
 007805,-0.00001061,0.00003129,0.00002101,-0.00017831,-0.00003396,0.000
 00529,0.00036848,-0.00028556,-0.00094297,0.00015531,0.00087475,0.00030
 663,-0.00106081,0.00110412,0.00470496,0.00152470,-0.00468563,0.0001625
 3,-0.00019146,-0.00001360,-0.00067825,-0.00188308,-0.00254255,0.000920
 49,0.00144501,-0.00002532,0.10205198,0.08094926,-0.21282008,0.00046958
 ,0.00118943,-0.00055922,0.00653118,0.01181561,-0.02920207,-0.00008692,
 -0.00003615,-0.00003743,0.00060800,-0.00282063,0.00133980,-0.00036484,
 -0.00021208,0.00007115,0.00001849,-0.00001325,0.00003333,0.00000323,0.
 00000379,0.00001590,-0.00002713,0.00000868,0.00001921,0.00001503,-0.00
 001507,-0.00001008,-0.00000641,-0.00002506,-0.00000035,0.00011885,-0.0
 0010971,-0.00003502,-0.00005236,-0.00001935,-0.00004310,0.00010969,0.0
 0009924,0.00031400,-0.00015138,0.00002345,0.00008094,0.00008095,0.0000
 7661,-0.00004461,-0.00016397,0.00009306,0.00015085,0.00004531,0.000019
 29,0.00004391,0.00001858,0.00007183,-0.00004274,0.00001096,-0.00002821
 ,-0.00000963,-0.00010748,-0.00032413,-0.00014345,-0.00165361,-0.002929
 24,-0.00375445,-0.00002609,0.00021437,-0.00000977,0.00005846,-0.000840
 64,-0.00008399,0.00007520,-0.00024534,0.00017903,-0.10644726,-0.087769
 61,0.24580301,-0.00138879,-0.00311405,-0.00401199,0.01135625,-0.036623
 12,-0.01453909,-0.00002829,-0.00022925,-0.00009070,0.00005872,0.000247
 28,0.00039743,-0.00002917,0.00047409,0.00002857,0.00050833,-0.00049244
 ,-0.00077368,0.00023497,-0.00080607,0.00001185,0.00063071,0.00067746,0
 .00064115,-0.00031222,-0.00067725,0.00035948,0.00006492,0.00039488,-0.
 00056833,0.01240580,0.01061925,0.00256285,-0.01573393,0.00324715,-0.00
 659361,0.00047942,0.00175555,0.00158158,-0.19006478,0.08528429,0.05098
 183,-0.00095364,0.01335232,0.00564630,0.00214312,0.00171426,0.00225764
 ,0.00670702,0.02389452,0.01023162,0.00014545,-0.00003581,0.00002509,0.
 00000447,0.00005322,0.00001161,0.00024662,-0.00015636,0.00004396,-0.00
 000222,-0.00006365,-0.00004460,0.00001142,-0.00009775,0.00001075,0.000
 23084,-0.00009817,-0.00011628,0.00001418,0.00008338,0.00008219,-0.0000
 9366,0.00004296,0.00008729,-0.00022661,0.00005106,0.00041629,0.0000435
 2,0.00007266,0.00006259,0.00001017,-0.00007415,-0.00013611,0.00010445,
 0.00021238,0.00013696,-0.00005929,-0.00012847,-0.00010755,0.00002720,0
 .00032040,0.00010602,-0.00006414,0.00005983,0.00027838,0.00004197,0.00
 007929,-0.00021370,0.00007713,0.00000961,0.00024546,-0.00182122,-0.001
 68236,-0.00036496,-0.00292006,-0.00248827,-0.00122387,0.00135440,0.000
 09569,0.00151646,0.18593801,-0.00173627,0.00178815,-0.00114026,-0.0075
 4872,-0.01232160,-0.00601305,-0.00000281,0.00009249,0.00003221,-0.0000
 4065,-0.00007719,-0.00015012,0.00000656,-0.00017162,-0.00008822,-0.000
 19052,0.00033843,0.00021886,0.00001207,0.00027277,0.00009449,-0.000466
 96,-0.00019959,-0.00057849,0.00001955,-0.00000811,-0.00004367,0.000019
 58,0.00008276,-0.00003454,0.01718768,-0.03244007,-0.01683806,-0.001596
 41,0.00113543,0.00315696,-0.00006631,-0.00032363,0.00005408,0.09948922
 ,-0.11054173,-0.02679480,0.00258529,0.00202935,0.00020763,0.00098325,-
 0.00099576,0.00025505,0.00794014,-0.00453104,0.00295495,-0.00004912,0.
 00001338,-0.00001734,-0.00000209,-0.00001815,-0.00000372,-0.00008252,0
 .00005065,-0.00001220,0.00000634,0.00001635,0.00001208,0.00000032,0.00
 003313,-0.00000297,-0.00006599,0.00002767,0.00003733,-0.00000586,-0.00
 003473,-0.00000371,0.00001957,-0.00000514,-0.00004097,0.00001441,-0.00
 002381,-0.00027719,-0.00008560,-0.00002115,-0.00003205,-0.00011201,0.0
 0004854,-0.00001048,0.00000347,-0.00000319,-0.00000267,0.00000396,-0.0
 0001133,0.00000699,-0.00001221,-0.00002048,-0.00000822,-0.00001322,-0.
 00004266,-0.00000404,-0.00001779,-0.00003502,0.00007280,-0.00000671,-0
 .00002799,0.00001284,-0.00005583,-0.00153830,-0.00078135,-0.00087652,-
 0.00319709,0.00020361,0.00028133,-0.00012892,0.00013672,-0.09866277,0.
 14878282,-0.00089593,0.00073644,0.00119645,-0.00300560,-0.00509145,-0.
 00150172,0.00011003,0.00001916,-0.00006829,-0.00015538,-0.00019170,-0.
 00063430,0.00004093,-0.00003727,0.00017469,-0.00116849,0.00110291,0.00
 115650,0.00018160,0.00002328,-0.00052162,-0.00251623,-0.00178621,-0.00
 545702,-0.00002549,0.00003107,0.00000815,0.00001447,0.00000566,-0.0000
 0463,0.00446355,-0.01151435,-0.00353898,-0.02380520,0.01458019,0.00892
 158,0.00018591,-0.00016668,-0.00029433,0.05293542,-0.02332537,-0.08019
 753,0.00065999,-0.00038571,0.00199606,-0.00047072,-0.00006624,-0.00010
 895,0.00261931,0.00224903,-0.00996651,-0.00002870,0.00000046,0.0000480
 7,-0.00000855,-0.00001947,0.00000341,-0.00022704,0.00016423,0.00002629
 ,0.00000946,0.00003774,0.00002350,-0.00000419,0.00001111,-0.00000780,-
 0.00004593,0.00002525,0.00003557,-0.00001561,-0.00007877,-0.00002182,0
 .00008349,0.00001279,-0.00002878,0.00011449,-0.00005654,0.00031435,0.0
 0000363,-0.00002318,0.00007339,0.00041566,-0.00011448,0.00000017,-0.00
 000064,0.00000004,-0.00000572,-0.00000237,0.00000697,0.00000259,0.0000
 0311,-0.00000358,-0.00000446,-0.00000269,-0.00000463,-0.00001656,-0.00
 004043,0.00002593,-0.00002056,0.00000103,0.00001293,0.00001678,0.00000
 609,0.00015154,-0.00040843,-0.00029999,-0.00166192,-0.00006526,0.00002
 370,0.00078335,0.00016238,-0.05323490,0.04097141,0.09541891,0.00076534
 ,0.00188215,-0.00520506,-0.00143698,-0.00070526,0.00008546,0.00014719,
 -0.00028323,-0.00029632,0.00000693,0.00002443,0.00000257,0.00000082,0.
 00044122,0.00094554,-0.00038027,-0.00004885,0.00008342,-0.00084103,-0.
 00040783,-0.00161463,0.00094197,0.00063231,-0.00068253,-0.00002373,-0.
 00027051,0.00002796,0.00020385,0.00042702,-0.00030281,-0.00405771,-0.0
 0226647,0.00380288,0.01257732,0.01244090,-0.02081180,0.00030947,0.0000
 6532,0.00185616,-0.11135418,-0.06871754,0.10619929,-0.00009824,-0.0001
 3498,-0.00013806,-0.00177864,0.00020500,0.00389096,-0.00086765,0.00027
 161,-0.00171236,0.00012133,-0.00004898,0.00016522,0.,0.00003446,0.0000
 1524,0.00000517,-0.00001952,0.00004042,-0.00000696,-0.00001812,-0.0000
 0610,0.00002990,-0.00013882,-0.00002809,0.00008815,-0.00001172,-0.0000
 7843,-0.00000758,-0.00000048,-0.00001105,0.00009144,-0.00008130,0.0002
 6679,-0.00128997,0.00057577,0.00179847,-0.00014562,0.00002561,0.000153
 66,0.00000258,0.00002289,0.00005479,0.00002638,0.00004880,0.00006674,-
 0.00008002,-0.00013827,-0.00003082,-0.00002434,0.00007361,0.00004923,-
 0.00005721,-0.00008465,0.00012365,-0.00004487,-0.00015053,0.00009885,-
 0.00001640,-0.00012719,0.00014580,0.00000331,0.00093518,-0.00029060,0.
 00067853,0.00003210,0.00009763,-0.00323311,-0.00078277,-0.00386444,-0.
 00914107,-0.01687585,0.02408224,0.11888592,-0.00014950,0.00348173,-0.0
 0892507,-0.00035473,-0.00317657,-0.00074747,-0.00008512,0.00022561,0.0
 0016442,-0.00005080,-0.00013938,-0.00013723,-0.00016022,-0.00043809,-0
 .00051678,0.00003365,0.00024660,0.00030412,0.00047876,0.00054108,0.001
 03435,-0.00054354,-0.00070080,0.00035222,-0.00011060,-0.00053974,0.000
 00349,-0.00001025,0.00067949,-0.00030228,-0.01025412,-0.01495819,0.020
 61346,0.00374226,0.00215835,0.00354777,0.00014305,-0.00003512,0.003673
 17,-0.06859727,-0.14000927,0.13468330,-0.00007142,0.00093843,-0.000051
 43,0.00080897,-0.00293837,0.00542273,0.00250999,0.00109791,0.00162019,
 -0.00010496,0.00003687,-0.00008348,-0.00000189,-0.00002955,-0.00000631
 ,-0.00007924,0.00006423,-0.00002490,0.00001858,0.00001780,0.00001407,0
 .00003683,0.00003622,0.00000138,-0.00009845,0.00003361,0.00006755,-0.0
 0010286,-0.00003863,-0.00007247,0.00000477,0.00001675,-0.00011673,0.00
 027136,0.00018898,-0.00126424,-0.00046587,-0.00010722,-0.00016860,0.00
 024013,-0.00018271,0.00008526,0.00004464,0.00006452,0.00013382,-0.0001
 0608,-0.00020960,-0.00009025,-0.00003127,0.00015523,0.00004746,-0.0000
 6505,-0.00010164,0.00029399,-0.00001852,-0.00006817,0.00009189,0.00001
 899,-0.00011477,0.00021901,-0.00274690,-0.00279953,-0.00146664,0.00074
 818,0.00123976,0.00072137,-0.00075439,-0.00061413,-0.00118340,0.002688
 45,0.01200639,-0.01642394,0.07317448,0.14397192,-0.00011489,0.00177427
 ,-0.00685653,0.00148878,-0.00138538,-0.00002350,-0.00003189,-0.0000009
 7,0.00006474,0.00001706,0.00000944,0.00016418,-0.00013393,-0.00004582,
 -0.00007674,0.00020655,-0.00011685,-0.00038255,0.00001198,0.00009937,0
 .00078750,0.00050254,-0.00011839,0.00099844,-0.00012705,-0.00031251,0.
 00019111,0.00008920,0.00047902,-0.00048132,-0.00517677,-0.00672354,0.0
 1232929,0.00804138,0.01125947,-0.02628473,0.00032413,0.00072328,0.0015
 7854,0.10496896,0.13425044,-0.26033551,-0.00133647,-0.00014472,-0.0005
 4031,0.00216240,0.00179497,0.00419357,-0.00068265,-0.00001651,0.000363
 47,0.00001537,-0.00000128,-0.00001549,0.00000066,0.00000734,0.00000163
 ,0.00006094,-0.00003887,-0.00000724,0.00000276,-0.00001032,-0.00001000
 ,0.00002210,-0.00002190,0.00000616,0.00002113,-0.00000361,-0.00001551,
 -0.00001234,0.00001500,0.00001685,-0.00001939,-0.00003168,0.00010006,0
 .00050640,-0.00041873,-0.00003661,-0.00016114,-0.00000973,-0.00005695,
 0.00000472,-0.00001856,-0.00005224,0.00004486,0.00008006,0.00010107,-0
 .00006535,-0.00016676,-0.00006538,-0.00000625,0.00014001,0.00006202,-0
 .00008156,-0.00009799,0.00013947,-0.00006112,-0.00020332,0.00005452,0.
 00000561,-0.00012603,0.00011112,-0.00160338,-0.00243185,-0.00020734,-0
 .00003521,-0.00057728,0.00109122,-0.00416427,-0.00054636,-0.00247774,0
 .00429605,0.00445010,-0.00670557,-0.10897988,-0.14151380,0.28227627\\-
 0.00001206,0.00000002,-0.00003483,-0.00000239,-0.00000673,0.00000119,-
 0.00000052,-0.00000586,0.00000131,0.00000288,0.00000160,0.00001018,0.0
 0000392,-0.00000891,0.00001020,-0.00000156,0.00000198,0.00000134,-0.00
 001239,-0.00000228,0.00000221,0.00001607,-0.00001132,-0.00000117,0.000
 00593,0.00000704,-0.00001094,-0.00000394,0.00001619,-0.00000646,-0.000
 00434,-0.00002136,0.00000062,-0.00001801,0.00001181,-0.00000664,0.0000
 1301,-0.00000265,0.00000190,0.00004431,0.00002668,0.00000152,0.0000025
 3,0.00000712,0.00000795,0.00000179,-0.00001123,0.00000931,-0.00000783,
 0.00000260,-0.00000134,-0.00000019,-0.00000473,0.00000631,-0.00000114,
 -0.00000446,0.00000221,-0.00000313,0.00000178,0.00000682,-0.00000265,0
 .00000022,0.00000839,-0.00000200,-0.00000768,0.00000781,-0.00000111,-0
 .00000947,0.00000334,0.00000028,0.00000386,-0.00000009,-0.00000327,0.0
 0000593,0.00000661,0.00000013,-0.00000669,-0.00000031,0.00000222,-0.00
 000738,-0.00000155,0.00000050,0.00000542,0.00000645,0.00000063,0.00000
 675,-0.00000925,0.00000197,-0.00000283,-0.00001009,0.00000042,0.000008
 44,-0.00001350,-0.00000128,0.00000978,-0.00000453,0.00000574,0.0000077
 5,-0.00000424,0.00000091,0.00001040,-0.00000243,-0.00000190,-0.0000026
 5,0.00000712,-0.00000018,-0.00000439,0.00000445,-0.00000112,0.00000593
 ,0.00000349,-0.00002161,-0.00000747,-0.00000175,-0.00000061,-0.0000132
 1,-0.00000161\\\@


 TO ERR IS HUMAN - AND TO BLAME IT ON A COMPUTER IS EVEN MORE SO.
 Job cpu time:  0 days  6 hours 14 minutes 28.9 seconds.
 File lengths (MBytes):  RWF=    527 Int=      0 D2E=      0 Chk=     17 Scr=      1
 Normal termination of Gaussian 09 at Sat Feb 17 20:21:42 2018.
