 Entering Gaussian System, Link 0=g09
 Initial command:
 /home/fb_chem/chemsoft/lx24-amd64/Gaussian_09_C.01_NBO_3.1_64_istanbul-64/g09/l1.exe /local/2397403.1.parallel_long/Gau-10822.inp -scrdir=/local/2397403.1.parallel_long/
 Entering Link 1 = /home/fb_chem/chemsoft/lx24-amd64/Gaussian_09_C.01_NBO_3.1_64_istanbul-64/g09/l1.exe PID=     10823.
  
 Copyright (c) 1988,1990,1992,1993,1995,1998,2003,2009,2011,
            Gaussian, Inc.  All Rights Reserved.
  
 This is part of the Gaussian(R) 09 program.  It is based on
 the Gaussian(R) 03 system (copyright 2003, Gaussian, Inc.),
 the Gaussian(R) 98 system (copyright 1998, Gaussian, Inc.),
 the Gaussian(R) 94 system (copyright 1995, Gaussian, Inc.),
 the Gaussian 92(TM) system (copyright 1992, Gaussian, Inc.),
 the Gaussian 90(TM) system (copyright 1990, Gaussian, Inc.),
 the Gaussian 88(TM) system (copyright 1988, Gaussian, Inc.),
 the Gaussian 86(TM) system (copyright 1986, Carnegie Mellon
 University), and the Gaussian 82(TM) system (copyright 1983,
 Carnegie Mellon University). Gaussian is a federally registered
 trademark of Gaussian, Inc.
  
 This software contains proprietary and confidential information,
 including trade secrets, belonging to Gaussian, Inc.
  
 This software is provided under written license and may be
 used, copied, transmitted, or stored only in accord with that
 written license.
  
 The following legend is applicable only to US Government
 contracts under FAR:
  
                    RESTRICTED RIGHTS LEGEND
  
 Use, reproduction and disclosure by the US Government is
 subject to restrictions as set forth in subparagraphs (a)
 and (c) of the Commercial Computer Software - Restricted
 Rights clause in FAR 52.227-19.
  
 Gaussian, Inc.
 340 Quinnipiac St., Bldg. 40, Wallingford CT 06492
  
  
 ---------------------------------------------------------------
 Warning -- This program may not be used in any manner that
 competes with the business of Gaussian, Inc. or will provide
 assistance to any competitor of Gaussian, Inc.  The licensee
 of this program is prohibited from giving any competitor of
 Gaussian, Inc. access to this program.  By using this program,
 the user acknowledges that Gaussian, Inc. is engaged in the
 business of creating and licensing software in the field of
 computational chemistry and represents and warrants to the
 licensee that it is not a competitor of Gaussian, Inc. and that
 it will not use this program in any manner prohibited above.
 ---------------------------------------------------------------
  

 Cite this work as:
 Gaussian 09, Revision C.01,
 M. J. Frisch, G. W. Trucks, H. B. Schlegel, G. E. Scuseria, 
 M. A. Robb, J. R. Cheeseman, G. Scalmani, V. Barone, B. Mennucci, 
 G. A. Petersson, H. Nakatsuji, M. Caricato, X. Li, H. P. Hratchian, 
 A. F. Izmaylov, J. Bloino, G. Zheng, J. L. Sonnenberg, M. Hada, 
 M. Ehara, K. Toyota, R. Fukuda, J. Hasegawa, M. Ishida, T. Nakajima, 
 Y. Honda, O. Kitao, H. Nakai, T. Vreven, J. A. Montgomery, Jr., 
 J. E. Peralta, F. Ogliaro, M. Bearpark, J. J. Heyd, E. Brothers, 
 K. N. Kudin, V. N. Staroverov, T. Keith, R. Kobayashi, J. Normand, 
 K. Raghavachari, A. Rendell, J. C. Burant, S. S. Iyengar, J. Tomasi, 
 M. Cossi, N. Rega, J. M. Millam, M. Klene, J. E. Knox, J. B. Cross, 
 V. Bakken, C. Adamo, J. Jaramillo, R. Gomperts, R. E. Stratmann, 
 O. Yazyev, A. J. Austin, R. Cammi, C. Pomelli, J. W. Ochterski, 
 R. L. Martin, K. Morokuma, V. G. Zakrzewski, G. A. Voth, 
 P. Salvador, J. J. Dannenberg, S. Dapprich, A. D. Daniels, 
 O. Farkas, J. B. Foresman, J. V. Ortiz, J. Cioslowski, 
 and D. J. Fox, Gaussian, Inc., Wallingford CT, 2010.
 
 ******************************************
 Gaussian 09:  AM64L-G09RevC.01 23-Sep-2011
                16-Feb-2018 
 ******************************************
 %nprocs=4
 Will use up to    4 processors via shared memory.
 %chk=frag39-conf0.chk
 ---------------------------------------------------------
 #B3LYP/6-31G* Integral=(Grid=UltraFine) freq Opt pop=none
 ---------------------------------------------------------
 1/14=-1,18=20,19=15,26=3,38=1/1,3;
 2/9=110,12=2,17=6,18=5,40=1/2;
 3/5=1,6=6,7=1,11=2,16=1,25=1,30=1,71=1,74=-5,75=-5/1,2,3;
 4//1;
 5/5=2,38=5/2;
 7//1,2,3,16;
 1/14=-1,18=20,19=15/3(2);
 2/9=110/2;
 99//99;
 2/9=110/2;
 3/5=1,6=6,7=1,11=2,16=1,25=1,30=1,71=1,74=-5,75=-5/1,2,3;
 4/5=5,16=3/1;
 5/5=2,38=5/2;
 7//1,2,3,16;
 1/14=-1,18=20,19=15/3(-5);
 2/9=110/2;
 99/9=1/99;
 -----------------------------
 Optimization for frag39-conf0
 -----------------------------
 Charge =  0 Multiplicity = 1
 Symbolic Z-Matrix:
 C                     3.36389  -0.36541  -2.85959 
 C                     3.42493  -0.86218  -4.27834 
 C                     0.78384   0.18661  -0.54947 
 C                     1.25523   1.57247  -0.9649 
 C                     2.69576   1.58872  -1.47049 
 N                     2.84106   0.89915  -2.73828 
 O                     3.76884  -1.03026  -1.9085 
 H                     4.3113   -0.44958  -4.76742 
 H                     3.48331  -1.95408  -4.28086 
 H                     2.53109  -0.56072  -4.83188 
 H                     0.75216  -0.49711  -1.4031 
 H                     1.44349  -0.24084   0.21231 
 H                    -0.22584   0.24294  -0.13025 
 H                     1.17988   2.24039  -0.09885 
 H                     0.58196   1.96579  -1.7357 
 H                     3.00878   2.62388  -1.64337 
 H                     3.37226   1.15337  -0.72731 
 H                     2.54434   1.38588  -3.58099 
 

 GradGradGradGradGradGradGradGradGradGradGradGradGradGradGradGradGradGrad
 Berny optimization.
 Initialization pass.
                           ----------------------------
                           !    Initial Parameters    !
                           ! (Angstroms and Degrees)  !
 --------------------------                            --------------------------
 ! Name  Definition              Value          Derivative Info.                !
 --------------------------------------------------------------------------------
 ! R1    R(1,2)                  1.5044         estimate D2E/DX2                !
 ! R2    R(1,6)                  1.3738         estimate D2E/DX2                !
 ! R3    R(1,7)                  1.2291         estimate D2E/DX2                !
 ! R4    R(2,8)                  1.0932         estimate D2E/DX2                !
 ! R5    R(2,9)                  1.0935         estimate D2E/DX2                !
 ! R6    R(2,10)                 1.0937         estimate D2E/DX2                !
 ! R7    R(3,4)                  1.5216         estimate D2E/DX2                !
 ! R8    R(3,11)                 1.0941         estimate D2E/DX2                !
 ! R9    R(3,12)                 1.0946         estimate D2E/DX2                !
 ! R10   R(3,13)                 1.0947         estimate D2E/DX2                !
 ! R11   R(4,5)                  1.5268         estimate D2E/DX2                !
 ! R12   R(4,14)                 1.0963         estimate D2E/DX2                !
 ! R13   R(4,15)                 1.0964         estimate D2E/DX2                !
 ! R14   R(5,6)                  1.4505         estimate D2E/DX2                !
 ! R15   R(5,16)                 1.0952         estimate D2E/DX2                !
 ! R16   R(5,17)                 1.0952         estimate D2E/DX2                !
 ! R17   R(6,18)                 1.0174         estimate D2E/DX2                !
 ! A1    A(2,1,6)              113.7455         estimate D2E/DX2                !
 ! A2    A(2,1,7)              122.5316         estimate D2E/DX2                !
 ! A3    A(6,1,7)              123.7117         estimate D2E/DX2                !
 ! A4    A(1,2,8)              109.2797         estimate D2E/DX2                !
 ! A5    A(1,2,9)              109.5162         estimate D2E/DX2                !
 ! A6    A(1,2,10)             110.6777         estimate D2E/DX2                !
 ! A7    A(8,2,9)              109.4246         estimate D2E/DX2                !
 ! A8    A(8,2,10)             109.4003         estimate D2E/DX2                !
 ! A9    A(9,2,10)             108.523          estimate D2E/DX2                !
 ! A10   A(4,3,11)             111.4138         estimate D2E/DX2                !
 ! A11   A(4,3,12)             111.0369         estimate D2E/DX2                !
 ! A12   A(4,3,13)             110.0854         estimate D2E/DX2                !
 ! A13   A(11,3,12)            108.444          estimate D2E/DX2                !
 ! A14   A(11,3,13)            107.7114         estimate D2E/DX2                !
 ! A15   A(12,3,13)            108.0236         estimate D2E/DX2                !
 ! A16   A(3,4,5)              113.1037         estimate D2E/DX2                !
 ! A17   A(3,4,14)             108.5376         estimate D2E/DX2                !
 ! A18   A(3,4,15)             109.1727         estimate D2E/DX2                !
 ! A19   A(5,4,14)             108.6612         estimate D2E/DX2                !
 ! A20   A(5,4,15)             110.0449         estimate D2E/DX2                !
 ! A21   A(14,4,15)            107.1342         estimate D2E/DX2                !
 ! A22   A(4,5,6)              112.2653         estimate D2E/DX2                !
 ! A23   A(4,5,16)             109.3903         estimate D2E/DX2                !
 ! A24   A(4,5,17)             110.7234         estimate D2E/DX2                !
 ! A25   A(6,5,16)             106.4241         estimate D2E/DX2                !
 ! A26   A(6,5,17)             110.0143         estimate D2E/DX2                !
 ! A27   A(16,5,17)            107.8358         estimate D2E/DX2                !
 ! A28   A(1,6,5)              123.5679         estimate D2E/DX2                !
 ! A29   A(1,6,18)             118.5696         estimate D2E/DX2                !
 ! A30   A(5,6,18)             117.8609         estimate D2E/DX2                !
 ! D1    D(6,1,2,8)             81.1927         estimate D2E/DX2                !
 ! D2    D(6,1,2,9)           -158.954          estimate D2E/DX2                !
 ! D3    D(6,1,2,10)           -39.3481         estimate D2E/DX2                !
 ! D4    D(7,1,2,8)            -97.6304         estimate D2E/DX2                !
 ! D5    D(7,1,2,9)             22.2229         estimate D2E/DX2                !
 ! D6    D(7,1,2,10)           141.8288         estimate D2E/DX2                !
 ! D7    D(2,1,6,5)           -179.4222         estimate D2E/DX2                !
 ! D8    D(2,1,6,18)             0.1085         estimate D2E/DX2                !
 ! D9    D(7,1,6,5)             -0.615          estimate D2E/DX2                !
 ! D10   D(7,1,6,18)           178.9157         estimate D2E/DX2                !
 ! D11   D(11,3,4,5)           -64.5735         estimate D2E/DX2                !
 ! D12   D(11,3,4,14)          174.7652         estimate D2E/DX2                !
 ! D13   D(11,3,4,15)           58.3051         estimate D2E/DX2                !
 ! D14   D(12,3,4,5)            56.4198         estimate D2E/DX2                !
 ! D15   D(12,3,4,14)          -64.2416         estimate D2E/DX2                !
 ! D16   D(12,3,4,15)          179.2984         estimate D2E/DX2                !
 ! D17   D(13,3,4,5)           175.9975         estimate D2E/DX2                !
 ! D18   D(13,3,4,14)           55.3362         estimate D2E/DX2                !
 ! D19   D(13,3,4,15)          -61.1239         estimate D2E/DX2                !
 ! D20   D(3,4,5,6)             68.4978         estimate D2E/DX2                !
 ! D21   D(3,4,5,16)          -173.5977         estimate D2E/DX2                !
 ! D22   D(3,4,5,17)           -54.8906         estimate D2E/DX2                !
 ! D23   D(14,4,5,6)          -170.9112         estimate D2E/DX2                !
 ! D24   D(14,4,5,16)          -53.0066         estimate D2E/DX2                !
 ! D25   D(14,4,5,17)           65.7004         estimate D2E/DX2                !
 ! D26   D(15,4,5,6)           -53.8957         estimate D2E/DX2                !
 ! D27   D(15,4,5,16)           64.0089         estimate D2E/DX2                !
 ! D28   D(15,4,5,17)         -177.2841         estimate D2E/DX2                !
 ! D29   D(4,5,6,1)           -102.6627         estimate D2E/DX2                !
 ! D30   D(4,5,6,18)            77.8035         estimate D2E/DX2                !
 ! D31   D(16,5,6,1)           137.6874         estimate D2E/DX2                !
 ! D32   D(16,5,6,18)          -41.8464         estimate D2E/DX2                !
 ! D33   D(17,5,6,1)            21.1221         estimate D2E/DX2                !
 ! D34   D(17,5,6,18)         -158.4117         estimate D2E/DX2                !
 --------------------------------------------------------------------------------
 Trust Radius=3.00D-01 FncErr=1.00D-07 GrdErr=1.00D-06
 Number of steps in this run=     91 maximum allowed number of steps=    108.
 GradGradGradGradGradGradGradGradGradGradGradGradGradGradGradGradGradGrad

                          Input orientation:                          
 ---------------------------------------------------------------------
 Center     Atomic      Atomic             Coordinates (Angstroms)
 Number     Number       Type             X           Y           Z
 ---------------------------------------------------------------------
      1          6           0        3.363890   -0.365409   -2.859587
      2          6           0        3.424934   -0.862179   -4.278335
      3          6           0        0.783842    0.186610   -0.549472
      4          6           0        1.255233    1.572469   -0.964897
      5          6           0        2.695760    1.588719   -1.470491
      6          7           0        2.841056    0.899155   -2.738278
      7          8           0        3.768839   -1.030263   -1.908500
      8          1           0        4.311295   -0.449585   -4.767420
      9          1           0        3.483306   -1.954078   -4.280859
     10          1           0        2.531091   -0.560724   -4.831883
     11          1           0        0.752165   -0.497111   -1.403097
     12          1           0        1.443489   -0.240840    0.212307
     13          1           0       -0.225837    0.242936   -0.130249
     14          1           0        1.179883    2.240390   -0.098850
     15          1           0        0.581959    1.965785   -1.735700
     16          1           0        3.008775    2.623884   -1.643374
     17          1           0        3.372263    1.153370   -0.727309
     18          1           0        2.544340    1.385876   -3.580990
 ---------------------------------------------------------------------
                    Distance matrix (angstroms):
                    1          2          3          4          5
     1  C    0.000000
     2  C    1.504444   0.000000
     3  C    3.506851   4.688256   0.000000
     4  C    3.433898   4.649084   1.521641   0.000000
     5  C    2.488896   3.797708   2.543544   1.526764   0.000000
     6  N    1.373752   2.411428   3.087187   2.472462   1.450480
     7  O    1.229057   2.400551   3.498278   3.739360   2.863986
     8  H    2.131780   1.093195   5.535228   5.280852   4.199330
     9  H    2.134981   1.093461   5.078672   5.328832   4.590186
    10  H    2.149804   1.093730   4.685129   4.596945   3.993267
    11  H    2.993295   3.942583   1.094146   2.174456   2.851805
    12  H    3.624912   4.947530   1.094603   2.170101   2.783393
    13  H    4.550331   5.635248   1.094702   2.158208   3.484697
    14  H    4.379697   5.668711   2.139608   1.096282   2.145684
    15  H    3.799569   4.748145   2.147873   1.096419   2.163486
    16  H    3.246714   4.389629   3.476673   2.154232   1.095187
    17  H    2.617894   4.083503   2.768786   2.171154   1.095219
    18  H    2.063755   2.513063   3.705090   2.922423   2.125624
                    6          7          8          9         10
     6  N    0.000000
     7  O    2.296077   0.000000
     8  H    2.845719   2.967300   0.000000
     9  H    3.306506   2.561846   1.784883   0.000000
    10  H    2.571091   3.209153   1.784835   1.775324   0.000000
    11  H    2.845300   3.104836   4.897789   4.226511   3.863314
    12  H    3.458140   3.244728   5.750266   5.223464   5.170015
    13  H    4.079004   4.554190   6.524454   5.984328   5.509254
    14  H    3.394847   4.546944   6.231954   6.355197   5.663357
    15  H    2.691910   4.377484   5.378966   5.500997   4.446202
    16  H    2.049789   3.741762   4.571918   5.304644   4.531722
    17  H    2.095424   2.514108   4.446767   4.721894   4.526944
    18  H    1.017399   3.183449   2.810456   3.539317   2.313906
                   11         12         13         14         15
    11  H    0.000000
    12  H    1.775707   0.000000
    13  H    1.767569   1.771450   0.000000
    14  H    3.062339   2.514520   2.442716   0.000000
    15  H    2.491075   3.066947   2.489622   1.764144   0.000000
    16  H    3.858838   3.755039   4.291990   2.424349   2.516159
    17  H    3.169494   2.558685   3.759215   2.526480   3.076145
    18  H    3.391275   4.271672   4.570318   3.836305   2.755418
                   16         17         18
    16  H    0.000000
    17  H    1.770229   0.000000
    18  H    2.345787   2.980438   0.000000
 Stoichiometry    C5H11NO
 Framework group  C1[X(C5H11NO)]
 Deg. of freedom    48
 Full point group                 C1      NOp   1
 Largest Abelian subgroup         C1      NOp   1
 Largest concise Abelian subgroup C1      NOp   1
                         Standard orientation:                         
 ---------------------------------------------------------------------
 Center     Atomic      Atomic             Coordinates (Angstroms)
 Number     Number       Type             X           Y           Z
 ---------------------------------------------------------------------
      1          6           0       -1.283957    0.112132    0.147730
      2          6           0       -2.520123   -0.065126   -0.691214
      3          6           0        2.018850    1.093667   -0.505003
      4          6           0        2.092443   -0.398162   -0.214449
      5          6           0        0.935102   -0.898659    0.646406
      6          7           0       -0.332082   -0.856756   -0.058137
      7          8           0       -1.159363    1.030106    0.955432
      8          1           0       -3.172694   -0.805208   -0.220574
      9          1           0       -3.048829    0.888868   -0.768814
     10          1           0       -2.258233   -0.400210   -1.698874
     11          1           0        1.139794    1.340322   -1.107976
     12          1           0        1.976101    1.673026    0.422721
     13          1           0        2.905320    1.412228   -1.062732
     14          1           0        3.033574   -0.605448    0.308178
     15          1           0        2.121263   -0.948613   -1.162239
     16          1           0        1.106849   -1.947012    0.912663
     17          1           0        0.866421   -0.323411    1.575856
     18          1           0       -0.523980   -1.591211   -0.735524
 ---------------------------------------------------------------------
 Rotational constants (GHZ):      4.6014106      1.5511176      1.4239015
 Standard basis: 6-31G(d) (6D, 7F)
 There are   127 symmetry adapted basis functions of A   symmetry.
 Integral buffers will be    131072 words long.
 Raffenetti 2 integral format.
 Two-electron integral symmetry is turned on.
   127 basis functions,   240 primitive gaussians,   127 cartesian basis functions
    28 alpha electrons       28 beta electrons
       nuclear repulsion energy       316.2974503688 Hartrees.
 NAtoms=   18 NActive=   18 NUniq=   18 SFac= 1.00D+00 NAtFMM=   60 NAOKFM=F Big=F
 One-electron integrals computed using PRISM.
 NBasis=   127 RedAO= T  NBF=   127
 NBsUse=   127 1.00D-06 NBFU=   127
 Harris functional with IExCor=  402 diagonalized for initial guess.
 ExpMin= 1.61D-01 ExpMax= 5.48D+03 ExpMxC= 8.25D+02 IAcc=3 IRadAn=         5 AccDes= 0.00D+00
 HarFok:  IExCor=  402 AccDes= 0.00D+00 IRadAn=         5 IDoV= 1
 ScaDFX=  1.000000  1.000000  1.000000  1.000000
 FoFCou: FMM=F IPFlag=           0 FMFlag=      100000 FMFlg1=           0
         NFxFlg=           0 DoJE=T BraDBF=F KetDBF=T FulRan=T
         Omega=  0.000000  0.000000  1.000000  0.000000  0.000000 ICntrl=     500 IOpCl=  0
         NMat0=    1 NMatS0=    1 NMatT0=    0 NMatD0=    1 NMtDS0=    0 NMtDT0=    0
         I1Cent=           4 NGrid=           0.
 Petite list used in FoFCou.
 Initial guess orbital symmetries:
       Occupied  (A) (A) (A) (A) (A) (A) (A) (A) (A) (A) (A) (A)
                 (A) (A) (A) (A) (A) (A) (A) (A) (A) (A) (A) (A)
                 (A) (A) (A) (A)
       Virtual   (A) (A) (A) (A) (A) (A) (A) (A) (A) (A) (A) (A)
                 (A) (A) (A) (A) (A) (A) (A) (A) (A) (A) (A) (A)
                 (A) (A) (A) (A) (A) (A) (A) (A) (A) (A) (A) (A)
                 (A) (A) (A) (A) (A) (A) (A) (A) (A) (A) (A) (A)
                 (A) (A) (A) (A) (A) (A) (A) (A) (A) (A) (A) (A)
                 (A) (A) (A) (A) (A) (A) (A) (A) (A) (A) (A) (A)
                 (A) (A) (A) (A) (A) (A) (A) (A) (A) (A) (A) (A)
                 (A) (A) (A) (A) (A) (A) (A) (A) (A) (A) (A) (A)
                 (A) (A) (A)
 The electronic state of the initial guess is 1-A.
 Requested convergence on RMS density matrix=1.00D-08 within 128 cycles.
 Requested convergence on MAX density matrix=1.00D-06.
 Requested convergence on             energy=1.00D-06.
 No special actions if energy rises.
 Integral accuracy reduced to 1.0D-05 until final iterations.
 Initial convergence to 1.0D-05 achieved.  Increase integral accuracy.
 SCF Done:  E(RB3LYP) =  -327.151440694     A.U. after   14 cycles
             Convg  =    0.4882D-08             -V/T =  2.0095
 Calling FoFJK, ICntrl=      2127 FMM=F ISym2X=0 I1Cent= 0 IOpClX= 0 NMat=1 NMatS=1 NMatT=0.
 ***** Axes restored to original set *****
 -------------------------------------------------------------------
 Center     Atomic                   Forces (Hartrees/Bohr)
 Number     Number              X              Y              Z
 -------------------------------------------------------------------
      1        6           0.000625429   -0.000064537    0.010144263
      2        6          -0.002572750   -0.005314304   -0.005130704
      3        6          -0.004115520   -0.002814235    0.001269318
      4        6          -0.001299998   -0.001293205    0.005608245
      5        6          -0.001921000    0.009995104   -0.003101130
      6        7           0.005257629   -0.007291031   -0.002776502
      7        8          -0.003086080    0.006520743   -0.002788656
      8        1           0.000926601   -0.000649864   -0.003336920
      9        1           0.001870537    0.001756037    0.000354762
     10        1           0.000687847    0.000877220   -0.003823076
     11        1           0.001133464   -0.001327629    0.000604349
     12        1           0.000286645   -0.001474059   -0.000510673
     13        1          -0.001262996   -0.001206579    0.000464897
     14        1           0.000410423    0.003146278    0.000009878
     15        1           0.000280371    0.002887124   -0.001176767
     16        1           0.001549218    0.002515783    0.003006215
     17        1          -0.000048699   -0.002864632   -0.004445914
     18        1           0.001278879   -0.003398215    0.005628415
 -------------------------------------------------------------------
 Cartesian Forces:  Max     0.010144263 RMS     0.003447917

 GradGradGradGradGradGradGradGradGradGradGradGradGradGradGradGradGradGrad
 Berny optimization.
 Internal  Forces:  Max     0.012392902 RMS     0.003028707
 Search for a local minimum.
 Step number   1 out of a maximum of   91
 All quantities printed in internal units (Hartrees-Bohrs-Radians)
 Mixed Optimization -- RFO/linear search
 Second derivative matrix not updated -- first step.
 ITU=  0
     Eigenvalues ---    0.00412   0.00480   0.00707   0.01024   0.01250
     Eigenvalues ---    0.01433   0.02039   0.03573   0.04271   0.04904
     Eigenvalues ---    0.05491   0.05546   0.05707   0.07369   0.07499
     Eigenvalues ---    0.08427   0.09500   0.12264   0.12854   0.16000
     Eigenvalues ---    0.16000   0.16000   0.16000   0.16000   0.16000
     Eigenvalues ---    0.16000   0.21942   0.21980   0.22000   0.24995
     Eigenvalues ---    0.25000   0.29724   0.30209   0.31915   0.34081
     Eigenvalues ---    0.34097   0.34216   0.34220   0.34275   0.34286
     Eigenvalues ---    0.34338   0.34385   0.34416   0.34446   0.38182
     Eigenvalues ---    0.44756   0.50262   0.91480
 RFO step:  Lambda=-3.90127640D-03 EMin= 4.11905728D-03
 Linear search not attempted -- first point.
 Iteration  1 RMS(Cart)=  0.05917661 RMS(Int)=  0.00143720
 Iteration  2 RMS(Cart)=  0.00202823 RMS(Int)=  0.00031108
 Iteration  3 RMS(Cart)=  0.00000240 RMS(Int)=  0.00031107
 Iteration  4 RMS(Cart)=  0.00000000 RMS(Int)=  0.00031107
 Variable       Old X    -DE/DX   Delta X   Delta X   Delta X     New X
                                 (Linear)    (Quad)   (Total)
    R1        2.84299   0.01239   0.00000   0.03836   0.03836   2.88135
    R2        2.59601  -0.00306   0.00000  -0.00604  -0.00604   2.58997
    R3        2.32258  -0.00670   0.00000  -0.00730  -0.00730   2.31529
    R4        2.06584   0.00200   0.00000   0.00574   0.00574   2.07158
    R5        2.06634  -0.00165   0.00000  -0.00475  -0.00475   2.06159
    R6        2.06685   0.00161   0.00000   0.00464   0.00464   2.07149
    R7        2.87548   0.00794   0.00000   0.02594   0.02594   2.90143
    R8        2.06764   0.00033   0.00000   0.00094   0.00094   2.06857
    R9        2.06850   0.00039   0.00000   0.00113   0.00113   2.06963
   R10        2.06869   0.00128   0.00000   0.00370   0.00370   2.07238
   R11        2.88517   0.00641   0.00000   0.02128   0.02128   2.90645
   R12        2.07167   0.00190   0.00000   0.00550   0.00550   2.07717
   R13        2.07193   0.00169   0.00000   0.00490   0.00490   2.07684
   R14        2.74101   0.00561   0.00000   0.01453   0.01453   2.75554
   R15        2.06960   0.00235   0.00000   0.00678   0.00678   2.07638
   R16        2.06966  -0.00191   0.00000  -0.00551  -0.00551   2.06415
   R17        1.92261  -0.00666   0.00000  -0.01475  -0.01475   1.90785
    A1        1.98523   0.00574   0.00000   0.02246   0.02237   2.00761
    A2        2.13858   0.00160   0.00000   0.00617   0.00607   2.14465
    A3        2.15918  -0.00735   0.00000  -0.02909  -0.02917   2.13001
    A4        1.90729   0.00304   0.00000   0.01506   0.01494   1.92223
    A5        1.91142  -0.00166   0.00000  -0.01019  -0.01021   1.90121
    A6        1.93169   0.00427   0.00000   0.02967   0.02951   1.96120
    A7        1.90982  -0.00208   0.00000  -0.02006  -0.02003   1.88979
    A8        1.90939  -0.00368   0.00000  -0.02215  -0.02238   1.88702
    A9        1.89408   0.00001   0.00000   0.00699   0.00693   1.90101
   A10        1.94454   0.00066   0.00000   0.00177   0.00173   1.94627
   A11        1.93796   0.00080   0.00000   0.00277   0.00273   1.94069
   A12        1.92135   0.00175   0.00000   0.01502   0.01495   1.93630
   A13        1.89271  -0.00175   0.00000  -0.01864  -0.01865   1.87406
   A14        1.87992  -0.00079   0.00000  -0.00091  -0.00097   1.87895
   A15        1.88537  -0.00081   0.00000  -0.00061  -0.00069   1.88468
   A16        1.97403   0.00275   0.00000   0.01654   0.01650   1.99053
   A17        1.89434   0.00084   0.00000   0.01945   0.01943   1.91377
   A18        1.90542   0.00047   0.00000   0.00904   0.00919   1.91461
   A19        1.89650  -0.00160   0.00000  -0.00917  -0.00957   1.88693
   A20        1.92065  -0.00223   0.00000  -0.02125  -0.02139   1.89925
   A21        1.86984  -0.00035   0.00000  -0.01592  -0.01625   1.85360
   A22        1.95940   0.00679   0.00000   0.03172   0.03081   1.99021
   A23        1.90922  -0.00228   0.00000   0.01001   0.00842   1.91764
   A24        1.93249   0.00019   0.00000  -0.00970  -0.00960   1.92288
   A25        1.85745   0.00151   0.00000   0.04219   0.04122   1.89867
   A26        1.92011  -0.00703   0.00000  -0.06889  -0.06849   1.85162
   A27        1.88209   0.00066   0.00000  -0.00406  -0.00337   1.87872
   A28        2.15667  -0.00026   0.00000  -0.00120  -0.00121   2.15545
   A29        2.06943   0.00020   0.00000   0.00100   0.00099   2.07042
   A30        2.05706   0.00006   0.00000   0.00012   0.00011   2.05717
    D1        1.41708   0.00041   0.00000  -0.00072  -0.00073   1.41635
    D2       -2.77427  -0.00128   0.00000  -0.02224  -0.02238  -2.79665
    D3       -0.68675   0.00033   0.00000  -0.00162  -0.00179  -0.68854
    D4       -1.70397   0.00086   0.00000   0.02376   0.02397  -1.68000
    D5        0.38786  -0.00084   0.00000   0.00224   0.00232   0.39018
    D6        2.47538   0.00078   0.00000   0.02287   0.02291   2.49829
    D7       -3.13151   0.00076   0.00000   0.03818   0.03801  -3.09349
    D8        0.00189   0.00057   0.00000   0.02764   0.02748   0.02937
    D9       -0.01073   0.00044   0.00000   0.01385   0.01401   0.00328
   D10        3.12267   0.00024   0.00000   0.00331   0.00348   3.12614
   D11       -1.12702   0.00106   0.00000   0.03327   0.03334  -1.09368
   D12        3.05023   0.00073   0.00000   0.02071   0.02063   3.07086
   D13        1.01762   0.00043   0.00000   0.02393   0.02398   1.04160
   D14        0.98471  -0.00017   0.00000   0.01264   0.01268   0.99739
   D15       -1.12123  -0.00049   0.00000   0.00008  -0.00003  -1.12125
   D16        3.12935  -0.00080   0.00000   0.00331   0.00332   3.13267
   D17        3.07174   0.00048   0.00000   0.02340   0.02347   3.09520
   D18        0.96580   0.00015   0.00000   0.01085   0.01076   0.97656
   D19       -1.06681  -0.00016   0.00000   0.01407   0.01411  -1.05270
   D20        1.19551  -0.00334   0.00000  -0.08033  -0.08049   1.11502
   D21       -3.02985   0.00124   0.00000  -0.00186  -0.00173  -3.03159
   D22       -0.95802   0.00075   0.00000  -0.00652  -0.00651  -0.96453
   D23       -2.98296  -0.00163   0.00000  -0.05147  -0.05176  -3.03472
   D24       -0.92514   0.00295   0.00000   0.02701   0.02700  -0.89814
   D25        1.14669   0.00246   0.00000   0.02235   0.02222   1.16891
   D26       -0.94066  -0.00424   0.00000  -0.08800  -0.08800  -1.02866
   D27        1.11717   0.00034   0.00000  -0.00953  -0.00924   1.10792
   D28       -3.09419  -0.00015   0.00000  -0.01418  -0.01402  -3.10821
   D29       -1.79180   0.00040   0.00000   0.01199   0.01251  -1.77929
   D30        1.35793   0.00059   0.00000   0.02245   0.02297   1.38090
   D31        2.40310  -0.00166   0.00000  -0.04535  -0.04615   2.35695
   D32       -0.73036  -0.00147   0.00000  -0.03489  -0.03569  -0.76605
   D33        0.36865   0.00031   0.00000  -0.02871  -0.02843   0.34022
   D34       -2.76481   0.00051   0.00000  -0.01825  -0.01798  -2.78278
         Item               Value     Threshold  Converged?
 Maximum Force            0.012393     0.000450     NO 
 RMS     Force            0.003029     0.000300     NO 
 Maximum Displacement     0.177090     0.001800     NO 
 RMS     Displacement     0.059303     0.001200     NO 
 Predicted change in Energy=-2.060607D-03
 GradGradGradGradGradGradGradGradGradGradGradGradGradGradGradGradGradGrad

                          Input orientation:                          
 ---------------------------------------------------------------------
 Center     Atomic      Atomic             Coordinates (Angstroms)
 Number     Number       Type             X           Y           Z
 ---------------------------------------------------------------------
      1          6           0        3.351940   -0.355180   -2.871420
      2          6           0        3.460300   -0.888140   -4.295870
      3          6           0        0.750612    0.188253   -0.538921
      4          6           0        1.253328    1.589492   -0.914638
      5          6           0        2.677589    1.609727   -1.494805
      6          7           0        2.812938    0.900129   -2.761460
      7          8           0        3.759197   -0.975381   -1.896433
      8          1           0        4.352546   -0.479885   -4.784692
      9          1           0        3.556019   -1.974320   -4.261052
     10          1           0        2.587854   -0.627597   -4.906265
     11          1           0        0.687228   -0.463960   -1.415757
     12          1           0        1.422136   -0.293876    0.179464
     13          1           0       -0.247992    0.237836   -0.088378
     14          1           0        1.236406    2.238435   -0.027615
     15          1           0        0.567714    2.046358   -1.641989
     16          1           0        3.009658    2.647887   -1.633578
     17          1           0        3.373038    1.129380   -0.802894
     18          1           0        2.505774    1.369846   -3.600681
 ---------------------------------------------------------------------
                    Distance matrix (angstroms):
                    1          2          3          4          5
     1  C    0.000000
     2  C    1.524744   0.000000
     3  C    3.535927   4.755596   0.000000
     4  C    3.466254   4.737311   1.535369   0.000000
     5  C    2.492123   3.833789   2.578283   1.538026   0.000000
     6  N    1.370553   2.443645   3.114424   2.513634   1.458171
     7  O    1.225197   2.419555   3.499781   3.717779   2.830895
     8  H    2.162723   1.096231   5.607754   5.372596   4.242089
     9  H    2.143442   1.090945   5.138219   5.403854   4.611850
    10  H    2.190578   1.096187   4.807782   4.757051   4.080654
    11  H    3.038335   4.020561   1.094642   2.188209   2.875407
    12  H    3.610512   4.953370   1.095202   2.184635   2.828965
    13  H    4.588736   5.720335   1.096657   2.182577   3.524080
    14  H    4.391987   5.739267   2.168105   1.099192   2.150565
    15  H    3.876958   4.901165   2.168586   1.099014   2.159603
    16  H    3.266162   4.449085   3.514450   2.172963   1.098773
    17  H    2.546205   4.034709   2.798664   2.171948   1.092301
    18  H    2.055123   2.548119   3.721711   2.971816   2.126447
                    6          7          8          9         10
     6  N    0.000000
     7  O    2.271831   0.000000
     8  H    2.892802   2.989919   0.000000
     9  H    3.326170   2.574992   1.772566   0.000000
    10  H    2.642877   3.248397   1.775032   1.779693   0.000000
    11  H    2.861870   3.151126   4.978407   4.313567   3.977789
    12  H    3.465402   3.199321   5.767560   5.205337   5.228280
    13  H    4.117437   4.560540   6.613277   6.064268   5.657122
    14  H    3.427889   4.492836   6.303125   6.407021   5.817369
    15  H    2.758276   4.402411   5.530230   5.652904   4.678302
    16  H    2.089371   3.709309   4.638515   5.344804   4.649429
    17  H    2.049938   2.403116   4.404984   4.650300   4.532233
    18  H    1.009592   3.158421   2.869487   3.566869   2.387691
                   11         12         13         14         15
    11  H    0.000000
    12  H    1.764581   0.000000
    13  H    1.768923   1.773072   0.000000
    14  H    3.087309   2.547543   2.491892   0.000000
    15  H    2.523324   3.086166   2.519887   1.757909   0.000000
    16  H    3.889051   3.802804   4.336850   2.427178   2.514955
    17  H    3.182438   2.607049   3.797004   2.529083   3.068350
    18  H    3.382876   4.269864   4.604448   3.890057   2.837291
                   16         17         18
    16  H    0.000000
    17  H    1.768599   0.000000
    18  H    2.399329   2.938976   0.000000
 Stoichiometry    C5H11NO
 Framework group  C1[X(C5H11NO)]
 Deg. of freedom    48
 Full point group                 C1      NOp   1
 Largest Abelian subgroup         C1      NOp   1
 Largest concise Abelian subgroup C1      NOp   1
                         Standard orientation:                         
 ---------------------------------------------------------------------
 Center     Atomic      Atomic             Coordinates (Angstroms)
 Number     Number       Type             X           Y           Z
 ---------------------------------------------------------------------
      1          6           0       -1.287706    0.110588    0.141655
      2          6           0       -2.572777   -0.016204   -0.669122
      3          6           0        2.043568    1.112400   -0.492196
      4          6           0        2.125621   -0.391352   -0.193271
      5          6           0        0.925875   -0.939536    0.597696
      6          7           0       -0.344396   -0.850583   -0.112770
      7          8           0       -1.121789    0.974533    0.994404
      8          1           0       -3.234091   -0.762641   -0.213910
      9          1           0       -3.088947    0.944902   -0.666919
     10          1           0       -2.383696   -0.315730   -1.706503
     11          1           0        1.181258    1.349748   -1.123328
     12          1           0        1.943954    1.694561    0.430102
     13          1           0        2.943556    1.457776   -1.015066
     14          1           0        3.039047   -0.605047    0.379626
     15          1           0        2.215720   -0.951758   -1.134365
     16          1           0        1.106109   -1.988581    0.870319
     17          1           0        0.795183   -0.374663    1.523417
     18          1           0       -0.540497   -1.546121   -0.817785
 ---------------------------------------------------------------------
 Rotational constants (GHZ):      4.6301381      1.5222122      1.3995341
 Standard basis: 6-31G(d) (6D, 7F)
 There are   127 symmetry adapted basis functions of A   symmetry.
 Integral buffers will be    131072 words long.
 Raffenetti 2 integral format.
 Two-electron integral symmetry is turned on.
   127 basis functions,   240 primitive gaussians,   127 cartesian basis functions
    28 alpha electrons       28 beta electrons
       nuclear repulsion energy       314.8932065883 Hartrees.
 NAtoms=   18 NActive=   18 NUniq=   18 SFac= 1.00D+00 NAtFMM=   60 NAOKFM=F Big=F
 One-electron integrals computed using PRISM.
 NBasis=   127 RedAO= T  NBF=   127
 NBsUse=   127 1.00D-06 NBFU=   127
 Initial guess read from the read-write file.
 B after Tr=     0.000000    0.000000    0.000000
         Rot=    1.000000    0.000000    0.000000    0.000000 Ang=   0.00 deg.
 Initial guess orbital symmetries:
       Occupied  (A) (A) (A) (A) (A) (A) (A) (A) (A) (A) (A) (A)
                 (A) (A) (A) (A) (A) (A) (A) (A) (A) (A) (A) (A)
                 (A) (A) (A) (A)
       Virtual   (A) (A) (A) (A) (A) (A) (A) (A) (A) (A) (A) (A)
                 (A) (A) (A) (A) (A) (A) (A) (A) (A) (A) (A) (A)
                 (A) (A) (A) (A) (A) (A) (A) (A) (A) (A) (A) (A)
                 (A) (A) (A) (A) (A) (A) (A) (A) (A) (A) (A) (A)
                 (A) (A) (A) (A) (A) (A) (A) (A) (A) (A) (A) (A)
                 (A) (A) (A) (A) (A) (A) (A) (A) (A) (A) (A) (A)
                 (A) (A) (A) (A) (A) (A) (A) (A) (A) (A) (A) (A)
                 (A) (A) (A) (A) (A) (A) (A) (A) (A) (A) (A) (A)
                 (A) (A) (A)
 Harris functional with IExCor=  402 diagonalized for initial guess.
 ExpMin= 1.61D-01 ExpMax= 5.48D+03 ExpMxC= 8.25D+02 IAcc=3 IRadAn=         5 AccDes= 0.00D+00
 HarFok:  IExCor=  402 AccDes= 0.00D+00 IRadAn=         5 IDoV= 1
 ScaDFX=  1.000000  1.000000  1.000000  1.000000
 FoFCou: FMM=F IPFlag=           0 FMFlag=      100000 FMFlg1=           0
         NFxFlg=           0 DoJE=T BraDBF=F KetDBF=T FulRan=T
         Omega=  0.000000  0.000000  1.000000  0.000000  0.000000 ICntrl=     500 IOpCl=  0
         NMat0=    1 NMatS0=    1 NMatT0=    0 NMatD0=    1 NMtDS0=    0 NMtDT0=    0
         I1Cent=           4 NGrid=           0.
 Petite list used in FoFCou.
 Requested convergence on RMS density matrix=1.00D-08 within 128 cycles.
 Requested convergence on MAX density matrix=1.00D-06.
 Requested convergence on             energy=1.00D-06.
 No special actions if energy rises.
 Integral accuracy reduced to 1.0D-05 until final iterations.
 Initial convergence to 1.0D-05 achieved.  Increase integral accuracy.
 SCF Done:  E(RB3LYP) =  -327.153126465     A.U. after   12 cycles
             Convg  =    0.5721D-08             -V/T =  2.0097
 Calling FoFJK, ICntrl=      2127 FMM=F ISym2X=0 I1Cent= 0 IOpClX= 0 NMat=1 NMatS=1 NMatT=0.
 ***** Axes restored to original set *****
 -------------------------------------------------------------------
 Center     Atomic                   Forces (Hartrees/Bohr)
 Number     Number              X              Y              Z
 -------------------------------------------------------------------
      1        6           0.002429150    0.002596318    0.003622042
      2        6          -0.001649938   -0.000394168    0.000222958
      3        6           0.000022973    0.001345252    0.000170822
      4        6          -0.000761286   -0.001820465   -0.000529235
      5        6           0.000429803   -0.001101546    0.001522501
      6        7          -0.001261334    0.001522418   -0.002262713
      7        8          -0.000176177   -0.002367124   -0.001748865
      8        1           0.000207073    0.000242292    0.000200701
      9        1           0.000302940   -0.000155679    0.000675641
     10        1           0.000344560    0.000582052   -0.000036872
     11        1           0.000489137    0.000161899   -0.000349098
     12        1           0.000315561    0.000055216   -0.000102425
     13        1           0.000287421    0.000477792   -0.000342199
     14        1           0.000767892   -0.000018227   -0.000380471
     15        1          -0.000697980    0.000439686    0.000136155
     16        1          -0.000469304   -0.000920912   -0.000802084
     17        1           0.000350510   -0.000345156    0.000800717
     18        1          -0.000931000   -0.000299648   -0.000797573
 -------------------------------------------------------------------
 Cartesian Forces:  Max     0.003622042 RMS     0.001087487

 GradGradGradGradGradGradGradGradGradGradGradGradGradGradGradGradGradGrad
 Berny optimization.
 Using GEDIIS/GDIIS optimizer.
 Internal  Forces:  Max     0.004235932 RMS     0.000789086
 Search for a local minimum.
 Step number   2 out of a maximum of   91
 All quantities printed in internal units (Hartrees-Bohrs-Radians)
 Mixed Optimization -- En-DIIS/RFO-DIIS
 Update second derivatives using D2CorX and points    1    2
 DE= -1.69D-03 DEPred=-2.06D-03 R= 8.18D-01
 SS=  1.41D+00  RLast= 2.18D-01 DXNew= 5.0454D-01 6.5288D-01
 Trust test= 8.18D-01 RLast= 2.18D-01 DXMaxT set to 5.05D-01
 ITU=  1  0
 Use linear search instead of GDIIS.
     Eigenvalues ---    0.00412   0.00479   0.00706   0.01013   0.01261
     Eigenvalues ---    0.01436   0.02026   0.03473   0.04487   0.04857
     Eigenvalues ---    0.05428   0.05523   0.05572   0.07092   0.07419
     Eigenvalues ---    0.08508   0.09777   0.12374   0.13008   0.15742
     Eigenvalues ---    0.15998   0.16000   0.16000   0.16000   0.16000
     Eigenvalues ---    0.16237   0.21632   0.21939   0.22179   0.24927
     Eigenvalues ---    0.26684   0.29782   0.30903   0.32789   0.34037
     Eigenvalues ---    0.34108   0.34218   0.34268   0.34284   0.34335
     Eigenvalues ---    0.34366   0.34404   0.34430   0.34917   0.38424
     Eigenvalues ---    0.44930   0.50213   0.91228
 RFO step:  Lambda=-2.74288486D-04 EMin= 4.11823601D-03
 Quartic linear search produced a step of -0.11434.
 Iteration  1 RMS(Cart)=  0.01547304 RMS(Int)=  0.00018776
 Iteration  2 RMS(Cart)=  0.00023727 RMS(Int)=  0.00008486
 Iteration  3 RMS(Cart)=  0.00000005 RMS(Int)=  0.00008486
 Variable       Old X    -DE/DX   Delta X   Delta X   Delta X     New X
                                 (Linear)    (Quad)   (Total)
    R1        2.88135  -0.00115  -0.00439   0.00373  -0.00065   2.88070
    R2        2.58997  -0.00012   0.00069  -0.00130  -0.00061   2.58936
    R3        2.31529  -0.00025   0.00083  -0.00155  -0.00072   2.31457
    R4        2.07158   0.00017  -0.00066   0.00147   0.00081   2.07239
    R5        2.06159   0.00020   0.00054  -0.00033   0.00021   2.06180
    R6        2.07149  -0.00012  -0.00053   0.00054   0.00001   2.07150
    R7        2.90143  -0.00238  -0.00297  -0.00229  -0.00526   2.89617
    R8        2.06857   0.00015  -0.00011   0.00057   0.00046   2.06903
    R9        2.06963   0.00010  -0.00013   0.00047   0.00034   2.06997
   R10        2.07238  -0.00038  -0.00042  -0.00032  -0.00074   2.07164
   R11        2.90645  -0.00093  -0.00243   0.00108  -0.00136   2.90509
   R12        2.07717  -0.00033  -0.00063   0.00014  -0.00049   2.07668
   R13        2.07684   0.00053  -0.00056   0.00225   0.00169   2.07853
   R14        2.75554  -0.00080  -0.00166   0.00076  -0.00090   2.75464
   R15        2.07638  -0.00091  -0.00078  -0.00113  -0.00191   2.07447
   R16        2.06415   0.00088   0.00063   0.00129   0.00192   2.06607
   R17        1.90785   0.00081   0.00169  -0.00106   0.00063   1.90848
    A1        2.00761  -0.00201  -0.00256  -0.00247  -0.00535   2.00226
    A2        2.14465  -0.00220  -0.00069  -0.00612  -0.00713   2.13752
    A3        2.13001   0.00424   0.00333   0.01038   0.01339   2.14340
    A4        1.92223  -0.00050  -0.00171  -0.00121  -0.00291   1.91932
    A5        1.90121  -0.00077   0.00117  -0.00556  -0.00440   1.89681
    A6        1.96120   0.00017  -0.00337   0.00684   0.00349   1.96469
    A7        1.88979   0.00038   0.00229  -0.00286  -0.00059   1.88920
    A8        1.88702   0.00002   0.00256  -0.00484  -0.00226   1.88476
    A9        1.90101   0.00074  -0.00079   0.00744   0.00666   1.90767
   A10        1.94627  -0.00058  -0.00020  -0.00356  -0.00376   1.94251
   A11        1.94069  -0.00012  -0.00031  -0.00019  -0.00050   1.94018
   A12        1.93630  -0.00050  -0.00171   0.00066  -0.00104   1.93526
   A13        1.87406   0.00021   0.00213  -0.00355  -0.00143   1.87263
   A14        1.87895   0.00058   0.00011   0.00311   0.00322   1.88217
   A15        1.88468   0.00048   0.00008   0.00374   0.00383   1.88850
   A16        1.99053  -0.00060  -0.00189   0.00050  -0.00139   1.98914
   A17        1.91377   0.00066  -0.00222   0.00585   0.00362   1.91739
   A18        1.91461  -0.00006  -0.00105   0.00305   0.00198   1.91659
   A19        1.88693  -0.00051   0.00109  -0.00842  -0.00728   1.87965
   A20        1.89925   0.00068   0.00245   0.00205   0.00451   1.90377
   A21        1.85360  -0.00015   0.00186  -0.00350  -0.00160   1.85200
   A22        1.99021  -0.00008  -0.00352   0.00452   0.00109   1.99130
   A23        1.91764   0.00002  -0.00096  -0.00141  -0.00220   1.91545
   A24        1.92288   0.00007   0.00110   0.00193   0.00302   1.92590
   A25        1.89867  -0.00055  -0.00471  -0.00091  -0.00551   1.89315
   A26        1.85162   0.00035   0.00783  -0.00712   0.00066   1.85228
   A27        1.87872   0.00021   0.00038   0.00281   0.00312   1.88184
   A28        2.15545  -0.00142   0.00014  -0.00591  -0.00577   2.14968
   A29        2.07042   0.00031  -0.00011   0.00085   0.00074   2.07116
   A30        2.05717   0.00111  -0.00001   0.00511   0.00509   2.06226
    D1        1.41635   0.00052   0.00008   0.03726   0.03721   1.45356
    D2       -2.79665   0.00022   0.00256   0.02969   0.03215  -2.76450
    D3       -0.68854   0.00073   0.00020   0.03968   0.03978  -0.64877
    D4       -1.68000  -0.00025  -0.00274  -0.00717  -0.00982  -1.68982
    D5        0.39018  -0.00055  -0.00026  -0.01473  -0.01487   0.37531
    D6        2.49829  -0.00004  -0.00262  -0.00475  -0.00725   2.49104
    D7       -3.09349  -0.00014  -0.00435  -0.01105  -0.01556  -3.10905
    D8        0.02937  -0.00004  -0.00314  -0.00748  -0.01079   0.01858
    D9        0.00328   0.00044  -0.00160   0.03249   0.03106   0.03434
   D10        3.12614   0.00054  -0.00040   0.03606   0.03582  -3.12122
   D11       -1.09368  -0.00020  -0.00381   0.01310   0.00928  -1.08440
   D12        3.07086   0.00039  -0.00236   0.01933   0.01698   3.08784
   D13        1.04160   0.00021  -0.00274   0.01843   0.01568   1.05727
   D14        0.99739  -0.00041  -0.00145   0.00607   0.00461   1.00200
   D15       -1.12125   0.00018   0.00000   0.01229   0.01231  -1.10894
   D16        3.13267   0.00001  -0.00038   0.01139   0.01101  -3.13950
   D17        3.09520  -0.00021  -0.00268   0.01111   0.00841   3.10362
   D18        0.97656   0.00037  -0.00123   0.01733   0.01611   0.99267
   D19       -1.05270   0.00020  -0.00161   0.01643   0.01481  -1.03789
   D20        1.11502   0.00031   0.00920  -0.02071  -0.01149   1.10353
   D21       -3.03159  -0.00045   0.00020  -0.01974  -0.01956  -3.05115
   D22       -0.96453  -0.00014   0.00074  -0.01599  -0.01525  -0.97978
   D23       -3.03472   0.00038   0.00592  -0.01905  -0.01309  -3.04781
   D24       -0.89814  -0.00038  -0.00309  -0.01808  -0.02116  -0.91930
   D25        1.16891  -0.00007  -0.00254  -0.01432  -0.01685   1.15207
   D26       -1.02866   0.00029   0.01006  -0.02655  -0.01649  -1.04515
   D27        1.10792  -0.00047   0.00106  -0.02558  -0.02456   1.08336
   D28       -3.10821  -0.00016   0.00160  -0.02182  -0.02024  -3.12845
   D29       -1.77929  -0.00048  -0.00143  -0.02457  -0.02606  -1.80535
   D30        1.38090  -0.00057  -0.00263  -0.02807  -0.03075   1.35014
   D31        2.35695  -0.00003   0.00528  -0.02520  -0.01984   2.33711
   D32       -0.76605  -0.00012   0.00408  -0.02870  -0.02453  -0.79058
   D33        0.34022  -0.00019   0.00325  -0.02436  -0.02114   0.31908
   D34       -2.78278  -0.00028   0.00206  -0.02786  -0.02583  -2.80861
         Item               Value     Threshold  Converged?
 Maximum Force            0.004236     0.000450     NO 
 RMS     Force            0.000789     0.000300     NO 
 Maximum Displacement     0.051343     0.001800     NO 
 RMS     Displacement     0.015525     0.001200     NO 
 Predicted change in Energy=-1.691549D-04
 GradGradGradGradGradGradGradGradGradGradGradGradGradGradGradGradGradGrad

                          Input orientation:                          
 ---------------------------------------------------------------------
 Center     Atomic      Atomic             Coordinates (Angstroms)
 Number     Number       Type             X           Y           Z
 ---------------------------------------------------------------------
      1          6           0        3.376659   -0.344187   -2.866963
      2          6           0        3.458235   -0.887649   -4.288859
      3          6           0        0.747665    0.188736   -0.550086
      4          6           0        1.254103    1.589471   -0.911041
      5          6           0        2.676525    1.608324   -1.493858
      6          7           0        2.810177    0.898888   -2.760235
      7          8           0        3.784652   -0.972950   -1.898267
      8          1           0        4.348692   -0.490680   -4.791021
      9          1           0        3.547715   -1.974067   -4.243110
     10          1           0        2.582460   -0.621295   -4.891941
     11          1           0        0.689934   -0.453518   -1.434931
     12          1           0        1.416913   -0.301643    0.165103
     13          1           0       -0.252877    0.237697   -0.104756
     14          1           0        1.250654    2.229381   -0.017648
     15          1           0        0.565803    2.061637   -1.627355
     16          1           0        3.003623    2.645941   -1.640302
     17          1           0        3.376748    1.131081   -0.803014
     18          1           0        2.478604    1.353838   -3.598701
 ---------------------------------------------------------------------
                    Distance matrix (angstroms):
                    1          2          3          4          5
     1  C    0.000000
     2  C    1.524400   0.000000
     3  C    3.544507   4.741752   0.000000
     4  C    3.474176   4.733283   1.532588   0.000000
     5  C    2.487550   3.827921   2.574187   1.537308   0.000000
     6  N    1.370229   2.438931   3.105323   2.513521   1.457695
     7  O    1.224816   2.414281   3.519999   3.734206   2.838040
     8  H    2.160627   1.096661   5.604867   5.381241   4.251264
     9  H    2.139989   1.091056   5.114335   5.390931   4.599010
    10  H    2.192733   1.096191   4.782711   4.743372   4.065344
    11  H    3.046499   3.999608   1.094885   2.183243   2.863775
    12  H    3.610518   4.934387   1.095381   2.181950   2.826084
    13  H    4.598032   5.704863   1.096266   2.179077   3.519889
    14  H    4.388820   5.729968   2.168115   1.098931   2.144299
    15  H    3.901990   4.914067   2.168258   1.099910   2.162975
    16  H    3.253416   4.439345   3.509383   2.169970   1.097764
    17  H    2.536986   4.029023   2.804294   2.174261   1.093315
    18  H    2.055537   2.541704   3.694275   2.962843   2.129390
                    6          7          8          9         10
     6  N    0.000000
     7  O    2.279555   0.000000
     8  H    2.902072   2.986427   0.000000
     9  H    3.316135   2.560598   1.772627   0.000000
    10  H    2.628113   3.245152   1.773928   1.784010   0.000000
    11  H    2.842686   3.172029   4.965001   4.285423   3.944708
    12  H    3.455440   3.211594   5.761444   5.173941   5.199459
    13  H    4.107437   4.580828   6.608029   6.038408   5.629755
    14  H    3.424049   4.495865   6.307271   6.387488   5.801620
    15  H    2.769949   4.432053   5.552779   5.658700   4.682152
    16  H    2.084194   3.711189   4.644850   5.330584   4.628754
    17  H    2.050764   2.406847   4.413500   4.637396   4.518964
    18  H    1.009923   3.164045   2.884633   3.554324   2.363135
                   11         12         13         14         15
    11  H    0.000000
    12  H    1.763994   0.000000
    13  H    1.770885   1.775361   0.000000
    14  H    3.085619   2.543054   2.496998   0.000000
    15  H    2.525557   3.085836   2.513026   1.757361   0.000000
    16  H    3.873239   3.803339   4.331550   2.424753   2.506899
    17  H    3.182647   2.613600   3.802614   2.518598   3.073578
    18  H    3.338829   4.246649   4.573227   3.885663   2.836546
                   16         17         18
    16  H    0.000000
    17  H    1.770613   0.000000
    18  H    2.404267   2.944851   0.000000
 Stoichiometry    C5H11NO
 Framework group  C1[X(C5H11NO)]
 Deg. of freedom    48
 Full point group                 C1      NOp   1
 Largest Abelian subgroup         C1      NOp   1
 Largest concise Abelian subgroup C1      NOp   1
                         Standard orientation:                         
 ---------------------------------------------------------------------
 Center     Atomic      Atomic             Coordinates (Angstroms)
 Number     Number       Type             X           Y           Z
 ---------------------------------------------------------------------
      1          6           0       -1.292697    0.097487    0.155050
      2          6           0       -2.561609   -0.017140   -0.681920
      3          6           0        2.040020    1.112237   -0.498255
      4          6           0        2.131034   -0.385070   -0.184224
      5          6           0        0.927285   -0.933158    0.599296
      6          7           0       -0.338719   -0.847397   -0.118168
      7          8           0       -1.140602    0.968278    1.002848
      8          1           0       -3.236936   -0.758820   -0.238628
      9          1           0       -3.068395    0.949075   -0.682355
     10          1           0       -2.357870   -0.319892   -1.715586
     11          1           0        1.175874    1.333612   -1.133091
     12          1           0        1.930730    1.702552    0.417956
     13          1           0        2.938998    1.456896   -1.022515
     14          1           0        3.034898   -0.588259    0.406871
     15          1           0        2.242245   -0.955724   -1.117920
     16          1           0        1.105345   -1.982988    0.866199
     17          1           0        0.789468   -0.370855    1.526744
     18          1           0       -0.522709   -1.526182   -0.842973
 ---------------------------------------------------------------------
 Rotational constants (GHZ):      4.6263855      1.5191638      1.4020479
 Standard basis: 6-31G(d) (6D, 7F)
 There are   127 symmetry adapted basis functions of A   symmetry.
 Integral buffers will be    131072 words long.
 Raffenetti 2 integral format.
 Two-electron integral symmetry is turned on.
   127 basis functions,   240 primitive gaussians,   127 cartesian basis functions
    28 alpha electrons       28 beta electrons
       nuclear repulsion energy       314.9439965674 Hartrees.
 NAtoms=   18 NActive=   18 NUniq=   18 SFac= 1.00D+00 NAtFMM=   60 NAOKFM=F Big=F
 One-electron integrals computed using PRISM.
 NBasis=   127 RedAO= T  NBF=   127
 NBsUse=   127 1.00D-06 NBFU=   127
 Initial guess read from the read-write file.
 B after Tr=     0.000000    0.000000    0.000000
         Rot=    1.000000    0.000000    0.000000    0.000000 Ang=   0.00 deg.
 Initial guess orbital symmetries:
       Occupied  (A) (A) (A) (A) (A) (A) (A) (A) (A) (A) (A) (A)
                 (A) (A) (A) (A) (A) (A) (A) (A) (A) (A) (A) (A)
                 (A) (A) (A) (A)
       Virtual   (A) (A) (A) (A) (A) (A) (A) (A) (A) (A) (A) (A)
                 (A) (A) (A) (A) (A) (A) (A) (A) (A) (A) (A) (A)
                 (A) (A) (A) (A) (A) (A) (A) (A) (A) (A) (A) (A)
                 (A) (A) (A) (A) (A) (A) (A) (A) (A) (A) (A) (A)
                 (A) (A) (A) (A) (A) (A) (A) (A) (A) (A) (A) (A)
                 (A) (A) (A) (A) (A) (A) (A) (A) (A) (A) (A) (A)
                 (A) (A) (A) (A) (A) (A) (A) (A) (A) (A) (A) (A)
                 (A) (A) (A) (A) (A) (A) (A) (A) (A) (A) (A) (A)
                 (A) (A) (A)
 Harris functional with IExCor=  402 diagonalized for initial guess.
 ExpMin= 1.61D-01 ExpMax= 5.48D+03 ExpMxC= 8.25D+02 IAcc=3 IRadAn=         5 AccDes= 0.00D+00
 HarFok:  IExCor=  402 AccDes= 0.00D+00 IRadAn=         5 IDoV= 1
 ScaDFX=  1.000000  1.000000  1.000000  1.000000
 FoFCou: FMM=F IPFlag=           0 FMFlag=      100000 FMFlg1=           0
         NFxFlg=           0 DoJE=T BraDBF=F KetDBF=T FulRan=T
         Omega=  0.000000  0.000000  1.000000  0.000000  0.000000 ICntrl=     500 IOpCl=  0
         NMat0=    1 NMatS0=    1 NMatT0=    0 NMatD0=    1 NMtDS0=    0 NMtDT0=    0
         I1Cent=           4 NGrid=           0.
 Petite list used in FoFCou.
 Requested convergence on RMS density matrix=1.00D-08 within 128 cycles.
 Requested convergence on MAX density matrix=1.00D-06.
 Requested convergence on             energy=1.00D-06.
 No special actions if energy rises.
 Integral accuracy reduced to 1.0D-05 until final iterations.
 Initial convergence to 1.0D-05 achieved.  Increase integral accuracy.
 SCF Done:  E(RB3LYP) =  -327.153252756     A.U. after   10 cycles
             Convg  =    0.8926D-08             -V/T =  2.0097
 Calling FoFJK, ICntrl=      2127 FMM=F ISym2X=0 I1Cent= 0 IOpClX= 0 NMat=1 NMatS=1 NMatT=0.
 ***** Axes restored to original set *****
 -------------------------------------------------------------------
 Center     Atomic                   Forces (Hartrees/Bohr)
 Number     Number              X              Y              Z
 -------------------------------------------------------------------
      1        6          -0.003880768   -0.001387540    0.000717723
      2        6           0.000952003    0.000435380   -0.000312831
      3        6           0.000077311    0.000578593    0.000039807
      4        6          -0.000137767   -0.000592391   -0.000464490
      5        6           0.000332939   -0.000206730    0.000408057
      6        7           0.000770607    0.000599294   -0.000020611
      7        8           0.001673627    0.000719724   -0.000520099
      8        1           0.000128664   -0.000114511   -0.000152225
      9        1           0.000000307   -0.000039588    0.000192257
     10        1           0.000228836    0.000202794    0.000253541
     11        1           0.000094295    0.000072694   -0.000133282
     12        1           0.000014055    0.000077508    0.000030129
     13        1           0.000176559    0.000042379   -0.000151191
     14        1           0.000206434   -0.000040714   -0.000052182
     15        1          -0.000101980    0.000051548    0.000186176
     16        1           0.000008032   -0.000103299    0.000004212
     17        1          -0.000267263   -0.000081501    0.000308676
     18        1          -0.000275890   -0.000213642   -0.000333668
 -------------------------------------------------------------------
 Cartesian Forces:  Max     0.003880768 RMS     0.000685045

 GradGradGradGradGradGradGradGradGradGradGradGradGradGradGradGradGradGrad
 Berny optimization.
 Using GEDIIS/GDIIS optimizer.
 Internal  Forces:  Max     0.000874646 RMS     0.000299943
 Search for a local minimum.
 Step number   3 out of a maximum of   91
 All quantities printed in internal units (Hartrees-Bohrs-Radians)
 Mixed Optimization -- En-DIIS/RFO-DIIS
 Swaping is turned off.
 Update second derivatives using D2CorX and points    1    2    3
 DE= -1.26D-04 DEPred=-1.69D-04 R= 7.47D-01
 SS=  1.41D+00  RLast= 1.26D-01 DXNew= 8.4853D-01 3.7657D-01
 Trust test= 7.47D-01 RLast= 1.26D-01 DXMaxT set to 5.05D-01
 ITU=  1  1  0
     Eigenvalues ---    0.00364   0.00463   0.00650   0.00843   0.01432
     Eigenvalues ---    0.01954   0.03020   0.03482   0.04486   0.04859
     Eigenvalues ---    0.05407   0.05536   0.05583   0.07082   0.07439
     Eigenvalues ---    0.08451   0.09876   0.12146   0.13020   0.15323
     Eigenvalues ---    0.15999   0.16000   0.16000   0.16000   0.16125
     Eigenvalues ---    0.16190   0.21411   0.21925   0.22276   0.24602
     Eigenvalues ---    0.26079   0.29793   0.30258   0.32450   0.34020
     Eigenvalues ---    0.34106   0.34218   0.34274   0.34286   0.34300
     Eigenvalues ---    0.34342   0.34413   0.34429   0.34511   0.38352
     Eigenvalues ---    0.44876   0.50185   0.91096
 En-DIIS/RFO-DIIS IScMMF=        0 using points:     3    2
 RFO step:  Lambda=-3.58857961D-05.
 DidBck=F Rises=F RFO-DIIS coefs:    0.80515    0.19485
 Iteration  1 RMS(Cart)=  0.02974735 RMS(Int)=  0.00047568
 Iteration  2 RMS(Cart)=  0.00072583 RMS(Int)=  0.00006921
 Iteration  3 RMS(Cart)=  0.00000031 RMS(Int)=  0.00006921
 Variable       Old X    -DE/DX   Delta X   Delta X   Delta X     New X
                                  (DIIS)     (GDIIS)  (Total)
    R1        2.88070  -0.00009   0.00013   0.00113   0.00126   2.88196
    R2        2.58936  -0.00022   0.00012  -0.00125  -0.00113   2.58823
    R3        2.31457  -0.00022   0.00014  -0.00127  -0.00113   2.31344
    R4        2.07239   0.00013  -0.00016   0.00139   0.00123   2.07362
    R5        2.06180   0.00005  -0.00004   0.00007   0.00003   2.06182
    R6        2.07150  -0.00027   0.00000  -0.00037  -0.00038   2.07112
    R7        2.89617  -0.00087   0.00102  -0.00604  -0.00502   2.89116
    R8        2.06903   0.00006  -0.00009   0.00063   0.00054   2.06958
    R9        2.06997  -0.00001  -0.00007   0.00037   0.00031   2.07028
   R10        2.07164  -0.00022   0.00014  -0.00103  -0.00089   2.07075
   R11        2.90509  -0.00051   0.00026  -0.00157  -0.00131   2.90378
   R12        2.07668  -0.00007   0.00010  -0.00035  -0.00025   2.07642
   R13        2.07853  -0.00004  -0.00033   0.00182   0.00149   2.08002
   R14        2.75464   0.00002   0.00018  -0.00009   0.00008   2.75473
   R15        2.07447  -0.00010   0.00037  -0.00173  -0.00135   2.07312
   R16        2.06607   0.00006  -0.00037   0.00172   0.00134   2.06741
   R17        1.90848   0.00027  -0.00012   0.00032   0.00020   1.90868
    A1        2.00226   0.00014   0.00104  -0.00388  -0.00309   1.99917
    A2        2.13752  -0.00034   0.00139  -0.00796  -0.00681   2.13071
    A3        2.14340   0.00020  -0.00261   0.01190   0.00903   2.15244
    A4        1.91932   0.00031   0.00057  -0.00051   0.00005   1.91937
    A5        1.89681  -0.00025   0.00086  -0.00608  -0.00523   1.89159
    A6        1.96469  -0.00029  -0.00068   0.00346   0.00278   1.96748
    A7        1.88920  -0.00002   0.00011  -0.00165  -0.00154   1.88765
    A8        1.88476   0.00000   0.00044  -0.00332  -0.00288   1.88188
    A9        1.90767   0.00027  -0.00130   0.00805   0.00676   1.91443
   A10        1.94251  -0.00021   0.00073  -0.00472  -0.00399   1.93852
   A11        1.94018  -0.00005   0.00010  -0.00053  -0.00043   1.93975
   A12        1.93526  -0.00002   0.00020  -0.00031  -0.00011   1.93515
   A13        1.87263   0.00012   0.00028  -0.00188  -0.00160   1.87102
   A14        1.88217   0.00011  -0.00063   0.00352   0.00289   1.88506
   A15        1.88850   0.00007  -0.00075   0.00422   0.00348   1.89198
   A16        1.98914  -0.00022   0.00027  -0.00134  -0.00107   1.98807
   A17        1.91739   0.00017  -0.00071   0.00495   0.00424   1.92163
   A18        1.91659  -0.00001  -0.00039   0.00264   0.00225   1.91883
   A19        1.87965  -0.00009   0.00142  -0.00891  -0.00749   1.87216
   A20        1.90377   0.00021  -0.00088   0.00484   0.00396   1.90772
   A21        1.85200  -0.00004   0.00031  -0.00246  -0.00215   1.84985
   A22        1.99130  -0.00043  -0.00021   0.00090   0.00069   1.99199
   A23        1.91545   0.00002   0.00043  -0.00257  -0.00214   1.91331
   A24        1.92590  -0.00005  -0.00059   0.00195   0.00137   1.92727
   A25        1.89315   0.00015   0.00107  -0.00305  -0.00197   1.89118
   A26        1.85228   0.00032  -0.00013  -0.00078  -0.00091   1.85138
   A27        1.88184   0.00002  -0.00061   0.00377   0.00316   1.88500
   A28        2.14968  -0.00026   0.00112  -0.00662  -0.00549   2.14419
   A29        2.07116  -0.00013  -0.00014  -0.00005  -0.00019   2.07096
   A30        2.06226   0.00039  -0.00099   0.00670   0.00571   2.06797
    D1        1.45356  -0.00054  -0.00725   0.00684  -0.00030   1.45327
    D2       -2.76450  -0.00053  -0.00627   0.00091  -0.00523  -2.76973
    D3       -0.64877  -0.00056  -0.00775   0.00911   0.00148  -0.64728
    D4       -1.68982   0.00074   0.00191   0.04299   0.04478  -1.64504
    D5        0.37531   0.00075   0.00290   0.03707   0.03985   0.41515
    D6        2.49104   0.00072   0.00141   0.04527   0.04656   2.53760
    D7       -3.10905   0.00058   0.00303   0.02501   0.02822  -3.08083
    D8        0.01858   0.00056   0.00210   0.02779   0.03006   0.04864
    D9        0.03434  -0.00070  -0.00605  -0.01125  -0.01747   0.01686
   D10       -3.12122  -0.00072  -0.00698  -0.00848  -0.01563  -3.13685
   D11       -1.08440  -0.00005  -0.00181   0.01523   0.01342  -1.07098
   D12        3.08784   0.00009  -0.00331   0.02403   0.02073   3.10856
   D13        1.05727   0.00006  -0.00305   0.02260   0.01954   1.07682
   D14        1.00200  -0.00007  -0.00090   0.00937   0.00847   1.01047
   D15       -1.10894   0.00008  -0.00240   0.01817   0.01577  -1.09317
   D16       -3.13950   0.00004  -0.00215   0.01673   0.01459  -3.12492
   D17        3.10362  -0.00003  -0.00164   0.01414   0.01250   3.11612
   D18        0.99267   0.00011  -0.00314   0.02294   0.01980   1.01247
   D19       -1.03789   0.00008  -0.00289   0.02151   0.01862  -1.01927
   D20        1.10353   0.00002   0.00224  -0.02102  -0.01878   1.08475
   D21       -3.05115  -0.00007   0.00381  -0.02627  -0.02246  -3.07361
   D22       -0.97978  -0.00007   0.00297  -0.02204  -0.01907  -0.99885
   D23       -3.04781   0.00002   0.00255  -0.02204  -0.01949  -3.06730
   D24       -0.91930  -0.00007   0.00412  -0.02730  -0.02317  -0.94247
   D25        1.15207  -0.00006   0.00328  -0.02306  -0.01978   1.13229
   D26       -1.04515   0.00003   0.00321  -0.02716  -0.02395  -1.06910
   D27        1.08336  -0.00006   0.00479  -0.03242  -0.02764   1.05573
   D28       -3.12845  -0.00006   0.00394  -0.02818  -0.02424   3.13049
   D29       -1.80535  -0.00026   0.00508  -0.04387  -0.03879  -1.84414
   D30        1.35014  -0.00024   0.00599  -0.04658  -0.04059   1.30956
   D31        2.33711  -0.00011   0.00387  -0.03890  -0.03503   2.30208
   D32       -0.79058  -0.00008   0.00478  -0.04161  -0.03683  -0.82741
   D33        0.31908  -0.00037   0.00412  -0.04140  -0.03729   0.28180
   D34       -2.80861  -0.00034   0.00503  -0.04411  -0.03908  -2.84770
         Item               Value     Threshold  Converged?
 Maximum Force            0.000875     0.000450     NO 
 RMS     Force            0.000300     0.000300     YES
 Maximum Displacement     0.115722     0.001800     NO 
 RMS     Displacement     0.029723     0.001200     NO 
 Predicted change in Energy=-1.206091D-04
 GradGradGradGradGradGradGradGradGradGradGradGradGradGradGradGradGradGrad

                          Input orientation:                          
 ---------------------------------------------------------------------
 Center     Atomic      Atomic             Coordinates (Angstroms)
 Number     Number       Type             X           Y           Z
 ---------------------------------------------------------------------
      1          6           0        3.379603   -0.349955   -2.866861
      2          6           0        3.470182   -0.888117   -4.290941
      3          6           0        0.730276    0.201339   -0.552416
      4          6           0        1.256688    1.595469   -0.898812
      5          6           0        2.672778    1.595945   -1.495368
      6          7           0        2.786933    0.880187   -2.760145
      7          8           0        3.845889   -0.957029   -1.911480
      8          1           0        4.351542   -0.470710   -4.793998
      9          1           0        3.587839   -1.971738   -4.242385
     10          1           0        2.589981   -0.638946   -4.894562
     11          1           0        0.666818   -0.428761   -1.445921
     12          1           0        1.393814   -0.306794    0.155914
     13          1           0       -0.269645    0.260773   -0.108126
     14          1           0        1.282056    2.224139    0.002012
     15          1           0        0.567445    2.094149   -1.597238
     16          1           0        3.006321    2.629279   -1.651838
     17          1           0        3.375995    1.113793   -0.809869
     18          1           0        2.421770    1.315983   -3.594949
 ---------------------------------------------------------------------
                    Distance matrix (angstroms):
                    1          2          3          4          5
     1  C    0.000000
     2  C    1.525067   0.000000
     3  C    3.560830   4.761362   0.000000
     4  C    3.487787   4.751241   1.529934   0.000000
     5  C    2.483369   3.823826   2.570486   1.536616   0.000000
     6  N    1.369633   2.436610   3.092690   2.513530   1.457738
     7  O    1.224219   2.409925   3.591088   3.774215   2.840249
     8  H    2.161737   1.097311   5.617494   5.386993   4.239136
     9  H    2.136728   1.091070   5.148183   5.416521   4.594757
    10  H    2.195129   1.095992   4.797792   4.768259   4.068920
    11  H    3.063410   4.020447   1.095173   2.178252   2.850571
    12  H    3.616959   4.942041   1.095543   2.179416   2.825402
    13  H    4.615259   5.727321   1.095796   2.176302   3.516387
    14  H    4.388177   5.736156   2.168772   1.098796   2.137963
    15  H    3.936219   4.957402   2.168155   1.100699   2.165875
    16  H    3.239052   4.421777   3.504854   2.167262   1.097048
    17  H    2.524636   4.016763   2.810459   2.175174   1.094026
    18  H    2.054971   2.538037   3.655213   2.950369   2.132984
                    6          7          8          9         10
     6  N    0.000000
     7  O    2.284071   0.000000
     8  H    2.899911   2.966665   0.000000
     9  H    3.312395   2.555257   1.772175   0.000000
    10  H    2.627221   3.252270   1.772432   1.788125   0.000000
    11  H    2.816987   3.256118   4.978813   4.328204   3.954220
    12  H    3.442834   3.272552   5.768593   5.189491   5.200813
    13  H    4.093842   4.655400   6.621770   6.079176   5.647737
    14  H    3.420580   4.511599   6.299656   6.398197   5.821027
    15  H    2.784274   4.489614   5.578277   5.714107   4.736328
    16  H    2.082258   3.692411   4.614404   5.312104   4.622758
    17  H    2.050644   2.392207   4.397230   4.620340   4.513827
    18  H    1.010030   3.166822   2.890331   3.547957   2.353516
                   11         12         13         14         15
    11  H    0.000000
    12  H    1.763314   0.000000
    13  H    1.772602   1.777342   0.000000
    14  H    3.084300   2.538070   2.504938   0.000000
    15  H    2.529397   3.085605   2.505882   1.756464   0.000000
    16  H    3.855812   3.806399   4.327219   2.423313   2.497491
    17  H    3.181772   2.622946   3.809301   2.505314   3.077174
    18  H    3.277546   4.214151   4.529362   3.880956   2.834592
                   16         17         18
    16  H    0.000000
    17  H    1.772644   0.000000
    18  H    2.417049   2.950948   0.000000
 Stoichiometry    C5H11NO
 Framework group  C1[X(C5H11NO)]
 Deg. of freedom    48
 Full point group                 C1      NOp   1
 Largest Abelian subgroup         C1      NOp   1
 Largest concise Abelian subgroup C1      NOp   1
                         Standard orientation:                         
 ---------------------------------------------------------------------
 Center     Atomic      Atomic             Coordinates (Angstroms)
 Number     Number       Type             X           Y           Z
 ---------------------------------------------------------------------
      1          6           0       -1.294462    0.104985    0.143338
      2          6           0       -2.561734   -0.027684   -0.694665
      3          6           0        2.060840    1.099243   -0.514623
      4          6           0        2.145441   -0.386059   -0.157666
      5          6           0        0.922334   -0.912962    0.608868
      6          7           0       -0.329120   -0.826294   -0.133662
      7          8           0       -1.181460    0.949942    1.021969
      8          1           0       -3.226232   -0.780775   -0.252639
      9          1           0       -3.081747    0.931457   -0.686219
     10          1           0       -2.356186   -0.327180   -1.728711
     11          1           0        1.203956    1.299269   -1.166653
     12          1           0        1.935632    1.714791    0.382950
     13          1           0        2.967039    1.427827   -1.035781
     14          1           0        3.028621   -0.574287    0.468367
     15          1           0        2.287988   -0.984043   -1.070701
     16          1           0        1.086236   -1.961014    0.888580
     17          1           0        0.770306   -0.337778    1.526987
     18          1           0       -0.494609   -1.488876   -0.877812
 ---------------------------------------------------------------------
 Rotational constants (GHZ):      4.6638645      1.4980190      1.3967654
 Standard basis: 6-31G(d) (6D, 7F)
 There are   127 symmetry adapted basis functions of A   symmetry.
 Integral buffers will be    131072 words long.
 Raffenetti 2 integral format.
 Two-electron integral symmetry is turned on.
   127 basis functions,   240 primitive gaussians,   127 cartesian basis functions
    28 alpha electrons       28 beta electrons
       nuclear repulsion energy       314.6957020694 Hartrees.
 NAtoms=   18 NActive=   18 NUniq=   18 SFac= 1.00D+00 NAtFMM=   60 NAOKFM=F Big=F
 One-electron integrals computed using PRISM.
 NBasis=   127 RedAO= T  NBF=   127
 NBsUse=   127 1.00D-06 NBFU=   127
 Initial guess read from the read-write file.
 B after Tr=     0.000000    0.000000    0.000000
         Rot=    1.000000    0.000000    0.000000    0.000000 Ang=   0.00 deg.
 Initial guess orbital symmetries:
       Occupied  (A) (A) (A) (A) (A) (A) (A) (A) (A) (A) (A) (A)
                 (A) (A) (A) (A) (A) (A) (A) (A) (A) (A) (A) (A)
                 (A) (A) (A) (A)
       Virtual   (A) (A) (A) (A) (A) (A) (A) (A) (A) (A) (A) (A)
                 (A) (A) (A) (A) (A) (A) (A) (A) (A) (A) (A) (A)
                 (A) (A) (A) (A) (A) (A) (A) (A) (A) (A) (A) (A)
                 (A) (A) (A) (A) (A) (A) (A) (A) (A) (A) (A) (A)
                 (A) (A) (A) (A) (A) (A) (A) (A) (A) (A) (A) (A)
                 (A) (A) (A) (A) (A) (A) (A) (A) (A) (A) (A) (A)
                 (A) (A) (A) (A) (A) (A) (A) (A) (A) (A) (A) (A)
                 (A) (A) (A) (A) (A) (A) (A) (A) (A) (A) (A) (A)
                 (A) (A) (A)
 Harris functional with IExCor=  402 diagonalized for initial guess.
 ExpMin= 1.61D-01 ExpMax= 5.48D+03 ExpMxC= 8.25D+02 IAcc=3 IRadAn=         5 AccDes= 0.00D+00
 HarFok:  IExCor=  402 AccDes= 0.00D+00 IRadAn=         5 IDoV= 1
 ScaDFX=  1.000000  1.000000  1.000000  1.000000
 FoFCou: FMM=F IPFlag=           0 FMFlag=      100000 FMFlg1=           0
         NFxFlg=           0 DoJE=T BraDBF=F KetDBF=T FulRan=T
         Omega=  0.000000  0.000000  1.000000  0.000000  0.000000 ICntrl=     500 IOpCl=  0
         NMat0=    1 NMatS0=    1 NMatT0=    0 NMatD0=    1 NMtDS0=    0 NMtDT0=    0
         I1Cent=           4 NGrid=           0.
 Petite list used in FoFCou.
 Requested convergence on RMS density matrix=1.00D-08 within 128 cycles.
 Requested convergence on MAX density matrix=1.00D-06.
 Requested convergence on             energy=1.00D-06.
 No special actions if energy rises.
 Integral accuracy reduced to 1.0D-05 until final iterations.
 Initial convergence to 1.0D-05 achieved.  Increase integral accuracy.
 SCF Done:  E(RB3LYP) =  -327.153326381     A.U. after   11 cycles
             Convg  =    0.6172D-08             -V/T =  2.0097
 Calling FoFJK, ICntrl=      2127 FMM=F ISym2X=0 I1Cent= 0 IOpClX= 0 NMat=1 NMatS=1 NMatT=0.
 ***** Axes restored to original set *****
 -------------------------------------------------------------------
 Center     Atomic                   Forces (Hartrees/Bohr)
 Number     Number              X              Y              Z
 -------------------------------------------------------------------
      1        6           0.001663369    0.000280651   -0.003315551
      2        6          -0.000063411   -0.000132590    0.000050056
      3        6           0.000264933   -0.000132323   -0.000155683
      4        6           0.000386484    0.000923366   -0.000404485
      5        6          -0.000162316    0.000067057   -0.000585766
      6        7           0.000105542   -0.000655917    0.002063928
      7        8          -0.000623009    0.000591421    0.001160882
      8        1          -0.000055916   -0.000082212    0.000641423
      9        1          -0.000433202   -0.000171252   -0.000552058
     10        1          -0.000063141   -0.000350224    0.000104347
     11        1          -0.000351586    0.000004578    0.000016636
     12        1          -0.000222268    0.000099785    0.000256409
     13        1           0.000058292   -0.000349379    0.000050565
     14        1          -0.000389953   -0.000170988    0.000256418
     15        1           0.000334406   -0.000396239    0.000190667
     16        1           0.000449229    0.000448962    0.000429069
     17        1          -0.000550950    0.000166871   -0.000224368
     18        1          -0.000346500   -0.000141567    0.000017512
 -------------------------------------------------------------------
 Cartesian Forces:  Max     0.003315551 RMS     0.000686109

 GradGradGradGradGradGradGradGradGradGradGradGradGradGradGradGradGradGrad
 Berny optimization.
[...]
 31465,0.2650376,-0.2972117,-0.5233389,-0.6797212,0.310301,-0.1133722,0
 .2841265,-0.7320233,-0.0059473,-0.2891902,0.2319556,-0.8289653,-0.0669
 209,0.0159371,0.0492318,0.0118862,0.0826209,-0.0055274,0.0303759,-0.02
 52001,0.0222319,0.065198,-0.059048,-0.0172833,-0.0446991,-0.0591087,-0
 .0022475,0.0152222,0.0149781,0.0343617,0.0011733,0.0597354,-0.0910195,
 0.0746348,-0.015313,0.0793157,-0.0493001,0.0242536,-0.058009,0.0800869
 ,-0.002846,-0.0166865,-0.0036061,-0.0487797,-0.0745695,-0.0219953,-0.1
 03701,-0.0789901,-0.0136064,0.0521269,-0.0969554,0.0211835,-0.0040523,
 0.053634,-0.0697376,0.0621276,-0.0142686,-0.1475962,-0.021106,0.105655
 9,-0.0111109,0.0308253,0.0098962,0.0988647,0.0120017,0.0205319,0.00330
 41,0.0017362,0.026772,-0.0148357,-0.0732586,-0.0948347,0.0372686,-0.12
 90999,-0.1116062,-0.0836382,0.0461244,-0.0491926,0.0342921,-0.0367972,
 0.0811821,-0.0953217,0.1049394,-0.0678941,-0.0087388,-0.0645443,0.0570
 197,-0.0568009,-0.1989764,-0.0354482,0.0961798,-0.0040574,-0.0256567,0
 .0157313,0.0014422,-0.0450635,0.0370022,0.0787272,0.0679373,-0.0091532
 ,0.0005316,0.0096668,0.2272385,0.0677621,-0.0848544,0.0744182,0.170938
 8,-0.0431164,-0.0415403,-0.0396858,0.0960617\Polar=58.2664763,-8.44664
 2,63.9322862,-3.8519735,5.7581419,64.7957515\PG=C01 [X(C5H11N1O1)]\NIm
 ag=0\\0.44649562,-0.25317252,0.57436806,0.21186395,-0.07442806,0.78157
 029,-0.08590145,0.00113236,0.00132513,0.56653906,0.00371986,-0.1068623
 8,-0.03482167,-0.01905077,0.55840240,0.00763204,-0.04511714,-0.1604116
 4,0.01620158,-0.04738431,0.49760997,0.00095600,-0.00085345,0.00023948,
 -0.00012729,-0.00002731,-0.00004682,0.57342521,-0.00015924,0.00165318,
 -0.00091695,-0.00006230,-0.00016836,0.00004022,-0.03016143,0.49391967,
 0.00138549,-0.00044843,0.00067676,-0.00014213,0.00005314,-0.00012327,0
 .00640051,0.02158018,0.57117667,-0.00178272,0.00067925,-0.00186385,-0.
 00016403,-0.00051488,0.00024016,-0.09102224,-0.03021336,0.00741342,0.4
 9648331,0.00050133,0.00216550,-0.00346404,-0.00058247,-0.00106511,0.00
 021961,-0.02987893,-0.18081431,0.02432849,-0.02349437,0.52151716,-0.00
 199172,0.00556597,-0.00512283,-0.00105937,-0.00165168,0.00044555,0.007
 02491,0.02328847,-0.08882642,0.04889704,0.02425601,0.56991037,0.000719
 37,0.00073647,0.02014551,0.00461015,0.00512782,-0.00243923,-0.01338345
 ,-0.00626981,0.00645033,-0.17397418,-0.00522469,0.02576591,0.51817887,
 0.00244563,-0.02203730,-0.02719848,0.00567399,0.00123941,0.00088987,-0
 .03213365,0.00105917,0.01345994,-0.00239845,-0.08206509,0.00639839,-0.
 02060152,0.60159647,0.01900874,-0.02677188,0.00422889,-0.00231571,0.00
 152509,0.00301399,0.00891459,0.00436944,-0.00380933,0.02997811,0.00403
 147,-0.08722465,0.05603245,-0.05284543,0.50650294,-0.11946825,0.121971
 55,0.00613951,0.00647529,0.00755281,0.00342702,0.00077778,0.00004181,-
 0.00148707,0.00175714,0.02007945,0.03266860,-0.07870925,0.02257602,-0.
 01364352,0.32294792,0.11446552,-0.24158752,-0.05504488,0.01323669,-0.0
 1565260,-0.01210439,0.00000219,-0.00113713,0.00095713,0.00396185,-0.00
 356285,-0.01366125,0.02837537,-0.12448422,-0.04114585,-0.30612002,0.53
 330589,-0.00808751,-0.03223322,-0.14353561,0.01677778,-0.03348840,-0.0
 0569794,-0.00092939,-0.00078997,0.00089026,0.00713428,-0.01133230,-0.0
 2364993,-0.00511581,-0.05164928,-0.18751240,0.17578648,0.01708337,0.69
 553539,-0.22684440,0.12637338,-0.22602148,0.00889164,0.00409556,-0.016
 41340,-0.00019348,-0.00000397,-0.00001534,0.00114400,0.00012090,0.0015
 6274,-0.00188394,-0.00342357,-0.00595363,-0.02056138,0.04627183,-0.030
 57516,0.23397150,0.12776602,-0.19508869,0.17878609,-0.00102508,0.01675
 025,-0.00153666,0.00020015,-0.00071630,-0.00007275,-0.00039163,-0.0007
 8538,0.00026458,-0.00126696,0.00176857,0.00623357,0.04887420,-0.037509
 71,0.04270372,-0.18291769,0.21883650,-0.22116960,0.17190228,-0.4541574
 4,-0.02770013,0.01558899,-0.04418431,-0.00041437,0.00088136,-0.0011020
 3,0.00108464,0.00101161,0.00295880,-0.00207182,-0.00268885,-0.00966197
 ,-0.02611953,0.03712859,0.01090468,0.27509798,-0.21935451,0.48923886,0
 .00108626,0.00151805,-0.00117336,-0.29018108,0.01719137,0.08199089,-0.
 00000636,-0.00001344,-0.00004416,-0.00000243,0.00002007,0.00000992,0.0
 0001715,-0.00014993,-0.00011340,0.00029448,-0.00030580,0.00069963,0.00
 099584,-0.00040320,-0.00038372,0.31287374,0.01669481,-0.00290391,-0.00
 625856,0.01815616,-0.04485854,-0.00435776,0.00002019,-0.00001823,-0.00
 000641,-0.00000457,0.00004675,0.00014622,-0.00073733,-0.00089639,0.000
 30622,-0.00078888,-0.00145314,-0.00250822,-0.00105399,0.00012372,0.002
 11634,-0.01853175,0.04761933,0.03224856,-0.00132927,-0.00977595,0.0828
 1423,-0.00344424,-0.07643458,0.00005363,-0.00000789,0.00002020,-0.0000
 6523,0.00009828,0.00010543,-0.00053322,-0.00135946,0.00065108,-0.00128
 620,-0.00116740,-0.00352457,-0.00376170,-0.00079730,0.00212825,-0.0896
 9646,0.00775966,0.07981244,0.00022461,0.00330608,0.00134358,-0.0816455
 8,-0.09260223,0.00362382,0.00001977,0.00004821,0.00006801,0.00004195,0
 .00010922,0.00011632,-0.00039043,-0.00021114,0.00022160,-0.00055686,0.
 00044935,0.00082813,0.00015280,0.00039754,-0.00120372,-0.01098180,-0.0
 3058691,0.00157595,0.08521670,-0.00359315,-0.01465255,0.00121511,-0.09
 362348,-0.28197335,0.01653055,0.00000909,-0.00012344,-0.00009677,-0.00
 019364,-0.00018800,-0.00024285,0.00075057,0.00031951,0.00014834,-0.000
 05375,-0.00018499,-0.00293933,0.00120518,0.00248738,0.00073628,0.00111
 121,0.00325484,0.00013818,0.10090983,0.30445779,-0.01348460,-0.0320359
 5,0.00292856,0.00277185,0.01587494,-0.04814122,-0.00002806,-0.00008894
 ,-0.00006756,-0.00024723,-0.00035932,-0.00036577,0.00164718,0.00026151
 ,-0.00007546,0.00039026,-0.00058172,-0.00400072,0.00262044,0.00292023,
 0.00062999,0.00333487,0.01052308,-0.00087134,-0.00670471,-0.01599141,0
 .05087559,-0.00330646,-0.00035357,0.00204456,-0.12613773,0.07518184,-0
 .09411358,-0.00000200,0.00002106,0.00001234,-0.00002067,-0.00001843,0.
 00001120,0.00016922,-0.00037894,-0.00020741,-0.00020415,-0.00010656,0.
 00065891,0.00284430,-0.00008890,-0.00015716,-0.01410655,0.01640594,-0.
 02166200,0.00749479,-0.00590860,0.00960625,0.13212887,-0.00938989,0.00
 727430,-0.00628970,0.07598223,-0.12423823,0.09139450,-0.00001842,0.000
 03306,0.00000208,0.00004509,0.00004150,0.00004837,-0.00012518,0.000447
 89,0.00039937,0.00017123,-0.00067843,0.00005710,-0.00018526,0.00089918
 ,-0.00499349,0.00001787,-0.00145664,0.00026185,0.01821963,-0.01355753,
 0.01970208,-0.08481071,0.13120759,-0.01826912,0.02452616,-0.01147256,-
 0.09241509,0.08875947,-0.16565765,0.00000668,-0.00001006,-0.00007289,-
 0.00008514,0.00005067,0.00003548,0.00037957,-0.00030146,0.00028713,0.0
 0110858,-0.00087586,0.00189300,-0.00036382,-0.00466226,-0.00905762,0.0
 0521543,-0.00704196,0.00856556,0.00032430,0.00034871,-0.00092665,0.103
 29268,-0.09904609,0.17691442,-0.00089261,0.00011262,0.00090831,-0.0000
 0341,-0.00002043,0.00003937,-0.05046290,-0.00421211,-0.00687161,-0.000
 84076,-0.00587756,-0.00942656,0.00014748,-0.00056376,-0.00121302,0.000
 42920,0.00035081,0.00010009,0.00032290,0.00012960,-0.00024752,0.000009
 45,0.00000055,-0.00003063,-0.00002679,0.00001059,0.00004384,-0.0000119
 3,0.00001979,-0.00004009,0.04904845,-0.00096181,0.00101461,0.00030567,
 0.00003573,0.00008773,-0.00003785,-0.00463959,-0.13749001,-0.12423574,
 -0.00140075,-0.01908648,-0.02652599,0.00096473,-0.00000898,-0.00158956
 ,0.00125802,0.00097685,0.00030756,0.00028157,-0.00027587,0.00025232,0.
 00001892,-0.00001399,-0.00000466,-0.00001660,0.00002057,0.00000229,-0.
 00001350,-0.00002419,0.00003116,0.00643544,0.15098625,0.00054452,-0.00
 071276,0.00044036,-0.00001831,0.00000952,0.00002739,-0.00772078,-0.124
 88130,-0.22474027,-0.00059523,0.00514207,0.00899122,0.00033851,-0.0006
 7707,-0.00025302,0.00030637,0.00086843,-0.00008069,-0.00009287,0.00055
 057,-0.00047275,-0.00000608,0.00000734,-0.00000607,-0.00001788,0.00004
 191,0.00004626,-0.00000313,0.00001352,-0.00003076,0.00681491,0.1368054
 7,0.24229835,-0.00007819,0.00013446,0.00008824,-0.00000604,-0.00001225
 ,-0.00001310,-0.15128754,0.06912758,-0.10870799,0.00730432,-0.00488334
 ,0.00871916,0.00158540,-0.00023815,0.00079604,-0.00006052,0.00006603,-
 0.00005080,-0.00007961,0.00002019,-0.00002249,0.00000493,-0.00000109,-
 0.00000569,-0.00000710,-0.00000359,-0.00001448,-0.00000507,-0.00000716
 ,-0.00000303,-0.00054826,-0.00051023,0.00048519,0.16024478,-0.00004899
 ,-0.00005221,0.00009678,0.00002304,0.00002369,-0.00002078,0.06825540,-
 0.09577230,0.07320110,0.02017928,-0.01433857,0.02207586,0.00135622,0.0
 0125936,-0.00041764,-0.00010339,0.00018893,0.00002260,0.00000331,-0.00
 007749,-0.00010249,0.00000360,0.,0.00000013,-0.00000979,0.00001214,0.0
 0000332,-0.00000247,-0.00001204,0.00000386,-0.01333627,0.00921904,-0.0
 1244696,-0.07390799,0.10498682,-0.00104373,0.00132577,-0.00121123,0.00
 010163,0.00002322,0.00005930,-0.10770769,0.07314068,-0.16627340,-0.003
 90470,0.00320211,-0.00534099,-0.00104597,-0.00007553,0.00025150,0.0011
 4237,-0.00056860,-0.00029496,-0.00001706,-0.00068729,0.00134099,0.0000
 2372,-0.00001325,0.00000469,-0.00001332,0.00000574,-0.00000205,0.00000
 906,-0.00001155,0.00008924,-0.01726795,0.01194502,-0.01736654,0.119335
 81,-0.08269817,0.17629116,0.00011471,-0.00019345,-0.00040953,-0.000015
 68,0.00004350,0.00005298,-0.27125442,0.01059682,0.09559838,-0.00848460
 ,0.00130944,0.00288709,0.00089686,-0.00279211,-0.00018489,0.00017507,0
 .00023002,-0.00006468,-0.00023902,0.00010526,0.00032468,-0.00000299,0.
 00000711,0.00002222,0.00000120,0.00001315,0.00000963,0.00000928,-0.000
 00613,0.00002827,0.00254655,0.00058226,-0.00094190,-0.01763562,0.00068
 655,0.00850379,0.29311963,0.00034369,-0.00079009,0.00066534,-0.0000326
 9,0.00004901,0.00000085,0.01138706,-0.04880137,-0.00464273,-0.03120540
 ,0.00195955,0.01327237,-0.00045671,-0.00716544,0.00031081,0.00051138,0
 .00102975,-0.00012394,-0.00004656,0.00047649,-0.00054581,-0.00000045,0
 .00001139,0.00000245,-0.00002292,0.00004404,0.00004257,-0.00000927,-0.
 00000578,-0.00001535,0.01857643,-0.00086753,-0.00617027,0.01201883,-0.
 00107994,-0.00689898,-0.01026003,0.05278188,-0.00074955,0.00049912,0.0
 0007173,0.00005754,-0.00003023,0.00001342,0.09546240,-0.00422326,-0.09
 132208,0.00595577,-0.00108690,-0.00375195,-0.00014700,0.00136800,-0.00
 006280,0.00058154,0.00029329,0.00030329,0.00016650,-0.00011689,0.00023
 671,0.00001175,-0.00000466,-0.00002453,-0.00001473,0.00001475,0.000014
 13,-0.00000638,0.00000882,0.00000261,0.02568185,-0.00032693,-0.0103929
 0,-0.02113398,-0.00003922,0.01052471,-0.10612383,0.00400042,0.09395942
 ,0.00107761,-0.00219654,0.00190404,0.00022262,0.00062235,-0.00014009,-
 0.00060327,-0.00699528,-0.00935138,-0.05020891,-0.00007106,-0.00258847
 ,0.00136213,0.01754896,0.02568519,-0.00709707,0.00231029,0.00340791,-0
 .00065697,0.00047207,-0.00100200,-0.00001013,-0.00000768,0.00000647,-0
 .00006092,0.00013538,0.00019730,0.00000333,-0.00003468,0.00000121,-0.0
 0002918,-0.00238972,0.00127997,0.00026830,0.00051689,0.00055845,0.0001
 2408,0.00032836,-0.00041530,0.05354742,-0.00032173,0.00008614,0.000404
 33,-0.00002300,0.00003540,0.00001626,-0.00086054,-0.01923607,-0.025788
 75,0.00038457,-0.13190904,-0.11909647,-0.00023149,-0.00101441,0.000475
 11,-0.00010266,0.00127907,-0.00009945,0.00017385,0.00013009,-0.0000659
 6,0.00000963,0.00001619,0.00000267,-0.00001756,0.00004119,0.00002492,-
 0.00000775,-0.00000284,-0.00000930,-0.00222122,-0.00547367,0.00221887,
 0.00078589,0.00107904,0.00001446,-0.00013803,0.00135517,0.00012019,0.0
 0265647,0.14511793,-0.00074836,0.00219850,-0.00085745,-0.00012794,-0.0
 0027653,0.00004326,0.00012304,0.00619696,0.00856231,-0.00126687,-0.118
 85978,-0.22111535,-0.00232337,-0.00714668,-0.01076984,0.00458819,-0.00
 166882,-0.00055443,0.00053986,-0.00059703,0.00072750,0.00002023,-0.000
 00627,-0.00000676,0.00001542,-0.00005678,-0.00009124,-0.00001726,0.000
 01137,-0.00000551,0.00082066,0.00241796,0.00073000,-0.00010038,-0.0006
 3755,0.00066893,-0.00048238,-0.00064097,0.00047725,-0.00073841,0.13021
 508,0.23930700,-0.00044764,0.00079276,-0.00050880,-0.00012496,-0.00001
 345,0.00003116,0.00769672,-0.00514356,0.00820611,-0.15024000,0.0665840
 1,-0.10258305,-0.02376536,0.01338395,-0.02190685,0.00288177,-0.0015232
 9,-0.00107577,0.00033432,0.00022762,0.00092182,0.00000523,0.00001497,0
 .00003287,0.00000465,0.00000426,0.00001897,0.00001312,-0.00001352,0.00
 005807,0.00024780,0.00068045,-0.00027741,0.00015105,-0.00274902,0.0006
 7582,0.00072962,0.00071963,-0.00000612,0.00004793,-0.00076893,-0.00003
 902,0.16670597,0.00034071,-0.00065143,0.00019285,-0.00001894,-0.000023
 96,0.00003400,0.02006163,-0.01462812,0.02188242,0.06614801,-0.09325992
 ,0.06649377,-0.00011509,0.00012895,-0.00093854,-0.00048285,0.00015665,
 0.00031118,-0.00018034,0.00041169,-0.00037800,-0.00001668,0.00001362,-
 0.00000801,0.00000106,0.00000511,0.00000631,0.00000320,0.00001131,-0.0
 0004394,0.00051733,0.00112373,-0.00071197,-0.00276649,-0.00574506,0.00
 139997,-0.00026165,0.00130484,-0.00024296,-0.01281867,0.00834430,-0.01
 166295,-0.07103382,0.10147912,0.00025150,-0.00041268,0.00027774,0.0000
 1664,0.00009226,-0.00001598,-0.00450766,0.00325687,-0.00525865,-0.1030
 5891,0.06599490,-0.15557897,0.01087102,-0.00659191,0.00817238,-0.00046
 712,0.00044862,0.00251335,-0.00015576,-0.00019345,-0.00026482,-0.00000
 572,0.00000035,0.00000432,-0.00000221,0.00001273,0.00001498,-0.0000008
 2,-0.00000401,-0.00000356,0.00047595,0.00007598,0.00086292,0.00120672,
 0.00150952,0.00109650,0.00024504,-0.00002727,-0.00014933,-0.01808619,0
 .01162684,-0.01816454,0.11169630,-0.07576616,0.16646390,-0.00030481,0.
 00129955,-0.00025772,-0.00006185,0.00008260,0.00000758,-0.00569081,0.0
 0250951,0.00225060,-0.01010868,-0.03149136,0.00725529,-0.07257235,-0.0
 6873012,0.01040266,0.00300565,0.00394949,-0.00174855,-0.00030943,0.000
 31721,0.00111478,0.00001467,0.00002141,0.00006579,-0.00001603,0.000017
 40,-0.00000263,0.00001672,-0.00004020,0.00001011,0.00009221,0.00012769
 ,-0.00028118,0.00016862,0.00007102,0.00021382,-0.00060946,-0.00195753,
 0.00051771,0.00130776,0.00040893,0.00000714,0.00112014,0.00016081,-0.0
 0112483,0.07578952,-0.00439140,0.00154149,-0.00136310,0.00078722,-0.00
 019950,-0.00010398,-0.00056928,0.00126529,0.00039437,0.00075402,-0.000
 14044,0.00098562,-0.06833951,-0.27393261,0.04105355,0.00172837,-0.0184
 0994,-0.00769525,0.00080796,-0.00066957,0.00024041,-0.00001344,-0.0001
 8736,-0.00022153,-0.00002195,-0.00002651,-0.00002015,-0.00005250,0.000
 03822,-0.00000701,0.00021720,0.00018768,-0.00008834,0.00009659,0.00020
 852,-0.00018240,-0.00003319,-0.00019049,-0.00012571,-0.00050205,0.0004
 7461,0.00061531,-0.00044643,0.00038876,-0.00024143,0.07386006,0.301409
 64,-0.00659829,0.00222776,-0.00479423,0.00200695,0.00020854,-0.0003569
 6,0.00301605,-0.00097263,-0.00037421,0.00213333,0.01209753,-0.00152000
 ,0.00972924,0.04532207,-0.05619535,-0.00273434,-0.04229403,-0.00451014
 ,0.00077913,-0.00044373,0.00328128,0.00004376,-0.00035228,-0.00047630,
 -0.00007040,0.00003919,0.00009188,-0.00005043,0.00004752,-0.00000320,0
 .00012348,0.00014704,0.00007621,-0.00015515,-0.00046830,0.00015734,0.0
 0058615,0.00087992,-0.00001478,-0.00022354,0.00011720,0.00002435,0.000
 07053,-0.00064070,0.00045070,-0.01652206,-0.03509448,0.06513167,0.0006
 3411,0.00142616,0.00023726,-0.00013744,0.00015275,-0.00042949,0.001563
 91,0.00083653,-0.00130558,-0.02184066,0.01361511,-0.01837046,-0.163445
 10,0.07366285,-0.11091098,0.00252237,-0.00294935,-0.00022005,-0.001742
 41,0.00103392,0.00157421,-0.00000624,0.00001007,-0.00000214,-0.0000002
 9,-0.00000394,-0.00000084,0.00008273,-0.00017312,-0.00014618,-0.000020
 86,-0.00012159,0.00006577,-0.00001017,-0.00101045,0.00067621,0.0005490
 8,0.00018434,0.00020859,0.00111517,0.00008945,0.00017049,-0.00482200,-
 0.00009817,0.00301527,0.00830240,-0.00417727,0.00812124,0.17724960,-0.
 00149887,0.00187800,-0.00329203,0.00048839,-0.00008842,0.00072524,-0.0
 0081108,0.00087646,-0.00090379,-0.00171931,0.00117134,-0.00205257,0.07
 831037,-0.10508766,0.07950602,-0.01258030,0.00834031,-0.01402163,0.001
 25843,-0.00248818,0.00105675,0.00005761,-0.00004724,0.00004643,0.00000
 419,-0.00002806,0.00002419,-0.00004035,0.00022454,0.00042911,-0.000050
 63,-0.00007806,-0.00004101,0.00011939,0.00022801,0.00020866,0.00008499
 ,-0.00009736,-0.00002227,0.00040630,-0.00015852,-0.00012239,-0.0012081
 4,0.00092400,-0.00018849,0.01992158,-0.01189368,0.01876247,-0.08299025
 ,0.10851071,-0.00452294,0.00456215,-0.00377756,0.00004060,-0.00004673,
 -0.00000947,-0.00003839,-0.00077080,0.00078175,0.00904017,-0.00572821,
 0.00998911,-0.10410782,0.06982124,-0.15157203,-0.01964907,0.01030442,-
 0.03098695,0.00171036,0.00061453,0.00423903,0.00009231,-0.00008034,0.0
 0004028,0.00003156,-0.00007982,0.00005354,0.00013582,-0.00006500,0.000
 35800,-0.00003701,0.00010079,-0.00005564,-0.00038069,0.00004720,-0.000
 15652,-0.00006618,-0.00018727,0.00001316,-0.00074570,-0.00005579,0.000
 54699,0.00356711,0.00039384,-0.00039342,-0.00182842,0.00225079,-0.0018
 5957,0.11624801,-0.07689562,0.17633085,-0.01228177,-0.00271317,-0.0160
 0481,-0.00223223,-0.00152914,0.00034912,-0.00040564,0.00005298,0.00014
 007,0.00195916,-0.00081732,0.00110146,0.00043742,-0.00367008,0.0054100
 4,-0.11460920,0.09733559,-0.15752551,0.00385334,0.00654967,0.00037395,
 -0.00000419,0.00038100,0.00022353,0.00052932,-0.00078650,-0.00015803,0
 .00103220,0.00034843,0.00089759,-0.00000734,-0.00033103,0.00011953,-0.
 00000930,0.00007304,-0.00024026,-0.00002430,-0.00007817,-0.00004678,-0
 .00040988,0.00018413,-0.00044105,-0.00053837,0.00055994,-0.00036921,-0
 .00014429,0.00029557,-0.00025565,0.00000578,0.00024768,0.00051027,0.12
 284930,0.00726001,-0.00535521,0.03141132,-0.00109709,-0.00145743,0.000
 81177,0.00001795,0.00009881,0.00033654,-0.00061572,0.00031339,0.000435
 17,-0.01225325,0.00887276,-0.01465011,0.09546698,-0.10061692,0.0963954
 5,0.00721940,-0.00427268,-0.00278582,-0.00051362,0.00074960,0.00003010
 ,0.00004399,0.00009186,-0.00030797,0.00017951,-0.00020189,-0.00213584,
 -0.00008839,-0.00029768,0.00007197,-0.00003867,-0.00012794,-0.00012986
 ,0.00002549,-0.00001411,-0.00008557,0.00001861,-0.00016457,0.00002056,
 0.00049251,0.00001640,0.00040730,-0.00052804,0.00013589,0.00041691,0.0
 0051297,-0.00218621,-0.00418536,-0.09610263,0.10441595,0.00373063,0.00
 068170,0.00492216,0.00166474,-0.00099138,-0.00017986,0.00015186,-0.000
 09238,-0.00013783,-0.00078975,0.00039779,0.00006089,-0.01357548,0.0130
 1313,-0.01597105,-0.16075206,0.10202895,-0.30769162,0.00089320,-0.0036
 1144,0.00321483,-0.00001960,-0.00022949,-0.00021216,-0.00012171,0.0001
 7546,-0.00011292,0.00044735,-0.00153675,-0.00091503,0.00012593,0.00032
 945,-0.00007407,-0.00004337,-0.00012926,0.00016133,0.00001515,0.000077
 86,0.00010194,0.00025052,-0.00012020,0.00047754,0.00111825,-0.00032111
 ,-0.00002754,-0.00008009,-0.00039666,0.00089129,0.00106867,-0.00321908
 ,-0.00354155,0.16591575,-0.10605657,0.31903365\\-0.00000710,0.00000241
 ,-0.00000460,0.00000348,0.00000585,0.00000253,-0.00000132,-0.00000327,
 -0.00000093,0.00000459,0.00000036,0.00000043,-0.00000759,0.00000510,0.
 00000933,0.00000711,-0.00000703,-0.00000591,0.00000391,-0.00000245,0.0
 0000245,-0.00000087,-0.00000068,-0.00000112,0.00000025,-0.00000109,0.0
 0000069,-0.00000022,0.00000045,-0.00000058,0.00000151,-0.00000030,0.00
 000068,-0.00000043,0.00000013,0.00000067,-0.00000090,0.00000043,-0.000
 00038,-0.00000207,-0.00000020,0.00000069,-0.00000110,-0.00000018,-0.00
 000101,-0.00000027,-0.00000216,-0.00000116,0.00000281,-0.00000086,-0.0
 0000119,-0.00000179,0.00000350,-0.00000059\\\@


 CLIMB THE MOUNTAINS AND GET THEIR GOOD TIDINGS.
 NATURE'S PEACE WILL FLOW INTO YOU AS SUNSHINE FLOWS INTO TREES.
 THE WINDS WILL BLOW THEIR OWN FRESHNESS INTO YOU, 
 AND CARES WILL DROP OFF LIKE AUTUMN LEAVES.

                                         -- JOHN MUIR
 Job cpu time:  0 days  0 hours 26 minutes 45.0 seconds.
 File lengths (MBytes):  RWF=     44 Int=      0 D2E=      0 Chk=      2 Scr=      1
 Normal termination of Gaussian 09 at Fri Feb 16 20:45:13 2018.
