 Entering Gaussian System, Link 0=g09
 Initial command:
 /home/fb_chem/chemsoft/lx24-amd64/Gaussian_09_C.01_NBO_3.1_64_istanbul-64/g09/l1.exe /local/2397417.1.parallel/Gau-31063.inp -scrdir=/local/2397417.1.parallel/
 Entering Link 1 = /home/fb_chem/chemsoft/lx24-amd64/Gaussian_09_C.01_NBO_3.1_64_istanbul-64/g09/l1.exe PID=     31064.
  
 Copyright (c) 1988,1990,1992,1993,1995,1998,2003,2009,2011,
            Gaussian, Inc.  All Rights Reserved.
  
 This is part of the Gaussian(R) 09 program.  It is based on
 the Gaussian(R) 03 system (copyright 2003, Gaussian, Inc.),
 the Gaussian(R) 98 system (copyright 1998, Gaussian, Inc.),
 the Gaussian(R) 94 system (copyright 1995, Gaussian, Inc.),
 the Gaussian 92(TM) system (copyright 1992, Gaussian, Inc.),
 the Gaussian 90(TM) system (copyright 1990, Gaussian, Inc.),
 the Gaussian 88(TM) system (copyright 1988, Gaussian, Inc.),
 the Gaussian 86(TM) system (copyright 1986, Carnegie Mellon
 University), and the Gaussian 82(TM) system (copyright 1983,
 Carnegie Mellon University). Gaussian is a federally registered
 trademark of Gaussian, Inc.
  
 This software contains proprietary and confidential information,
 including trade secrets, belonging to Gaussian, Inc.
  
 This software is provided under written license and may be
 used, copied, transmitted, or stored only in accord with that
 written license.
  
 The following legend is applicable only to US Government
 contracts under FAR:
  
                    RESTRICTED RIGHTS LEGEND
  
 Use, reproduction and disclosure by the US Government is
 subject to restrictions as set forth in subparagraphs (a)
 and (c) of the Commercial Computer Software - Restricted
 Rights clause in FAR 52.227-19.
  
 Gaussian, Inc.
 340 Quinnipiac St., Bldg. 40, Wallingford CT 06492
  
  
 ---------------------------------------------------------------
 Warning -- This program may not be used in any manner that
 competes with the business of Gaussian, Inc. or will provide
 assistance to any competitor of Gaussian, Inc.  The licensee
 of this program is prohibited from giving any competitor of
 Gaussian, Inc. access to this program.  By using this program,
 the user acknowledges that Gaussian, Inc. is engaged in the
 business of creating and licensing software in the field of
 computational chemistry and represents and warrants to the
 licensee that it is not a competitor of Gaussian, Inc. and that
 it will not use this program in any manner prohibited above.
 ---------------------------------------------------------------
  

 Cite this work as:
 Gaussian 09, Revision C.01,
 M. J. Frisch, G. W. Trucks, H. B. Schlegel, G. E. Scuseria, 
 M. A. Robb, J. R. Cheeseman, G. Scalmani, V. Barone, B. Mennucci, 
 G. A. Petersson, H. Nakatsuji, M. Caricato, X. Li, H. P. Hratchian, 
 A. F. Izmaylov, J. Bloino, G. Zheng, J. L. Sonnenberg, M. Hada, 
 M. Ehara, K. Toyota, R. Fukuda, J. Hasegawa, M. Ishida, T. Nakajima, 
 Y. Honda, O. Kitao, H. Nakai, T. Vreven, J. A. Montgomery, Jr., 
 J. E. Peralta, F. Ogliaro, M. Bearpark, J. J. Heyd, E. Brothers, 
 K. N. Kudin, V. N. Staroverov, T. Keith, R. Kobayashi, J. Normand, 
 K. Raghavachari, A. Rendell, J. C. Burant, S. S. Iyengar, J. Tomasi, 
 M. Cossi, N. Rega, J. M. Millam, M. Klene, J. E. Knox, J. B. Cross, 
 V. Bakken, C. Adamo, J. Jaramillo, R. Gomperts, R. E. Stratmann, 
 O. Yazyev, A. J. Austin, R. Cammi, C. Pomelli, J. W. Ochterski, 
 R. L. Martin, K. Morokuma, V. G. Zakrzewski, G. A. Voth, 
 P. Salvador, J. J. Dannenberg, S. Dapprich, A. D. Daniels, 
 O. Farkas, J. B. Foresman, J. V. Ortiz, J. Cioslowski, 
 and D. J. Fox, Gaussian, Inc., Wallingford CT, 2010.
 
 ******************************************
 Gaussian 09:  AM64L-G09RevC.01 23-Sep-2011
                16-Feb-2018 
 ******************************************
 %nprocs=4
 Will use up to    4 processors via shared memory.
 %chk=frag45-conf0.chk
 ---------------------------------------------------------
 #B3LYP/6-31G* Integral=(Grid=UltraFine) freq Opt pop=none
 ---------------------------------------------------------
 1/14=-1,18=20,19=15,26=3,38=1/1,3;
 2/9=110,12=2,17=6,18=5,40=1/2;
 3/5=1,6=6,7=1,11=2,16=1,25=1,30=1,71=1,74=-5,75=-5/1,2,3;
 4//1;
 5/5=2,38=5/2;
 7//1,2,3,16;
 1/14=-1,18=20,19=15/3(2);
 2/9=110/2;
 99//99;
 2/9=110/2;
 3/5=1,6=6,7=1,11=2,16=1,25=1,30=1,71=1,74=-5,75=-5/1,2,3;
 4/5=5,16=3/1;
 5/5=2,38=5/2;
 7//1,2,3,16;
 1/14=-1,18=20,19=15/3(-5);
 2/9=110/2;
 99/9=1/99;
 -----------------------------
 Optimization for frag45-conf0
 -----------------------------
 Charge =  0 Multiplicity = 1
 Symbolic Z-Matrix:
 C                     2.44106  -1.26522  -0.07876 
 C                     1.27629  -0.55139   0.20802 
 C                     2.74968  -1.69062   2.28102 
 C                     1.57016  -0.98422   2.58566 
 C                     3.1749   -1.83029   0.95949 
 C                     0.84398  -0.40695   1.531 
 C                     1.33547   0.77959   5.87372 
 C                     1.93844   2.09575   6.28186 
 C                     1.16226  -0.8421    4.02791 
 N                     1.65873   0.38962   4.59942 
 O                     0.59751   0.13107   6.61269 
 Cl                    4.61663  -2.70352   0.61239 
 Cl                   -0.59454   0.51006   1.80702 
 H                     2.76788  -1.36985  -1.11062 
 H                     0.71153  -0.10578  -0.6085 
 H                     3.33831  -2.13287   3.08356 
 H                     1.29538   2.90893   5.93506 
 H                     2.02158   2.1361    7.3714 
 H                     2.93736   2.216     5.85307 
 H                     0.07414  -0.88645   4.14875 
 H                     1.56203  -1.6714    4.62473 
 H                     2.27563   0.97545   4.0435 
 

 GradGradGradGradGradGradGradGradGradGradGradGradGradGradGradGradGradGrad
 Berny optimization.
 Initialization pass.
                           ----------------------------
                           !    Initial Parameters    !
                           ! (Angstroms and Degrees)  !
 --------------------------                            --------------------------
 ! Name  Definition              Value          Derivative Info.                !
 --------------------------------------------------------------------------------
 ! R1    R(1,2)                  1.3959         estimate D2E/DX2                !
 ! R2    R(1,5)                  1.3913         estimate D2E/DX2                !
 ! R3    R(1,14)                 1.0874         estimate D2E/DX2                !
 ! R4    R(2,6)                  1.3993         estimate D2E/DX2                !
 ! R5    R(2,15)                 1.0882         estimate D2E/DX2                !
 ! R6    R(3,4)                  1.4082         estimate D2E/DX2                !
 ! R7    R(3,5)                  1.3953         estimate D2E/DX2                !
 ! R8    R(3,16)                 1.0891         estimate D2E/DX2                !
 ! R9    R(4,6)                  1.4046         estimate D2E/DX2                !
 ! R10   R(4,9)                  1.5056         estimate D2E/DX2                !
 ! R11   R(5,12)                 1.7209         estimate D2E/DX2                !
 ! R12   R(6,13)                 1.7281         estimate D2E/DX2                !
 ! R13   R(7,8)                  1.5041         estimate D2E/DX2                !
 ! R14   R(7,10)                 1.3713         estimate D2E/DX2                !
 ! R15   R(7,11)                 1.2293         estimate D2E/DX2                !
 ! R16   R(8,17)                 1.0932         estimate D2E/DX2                !
 ! R17   R(8,18)                 1.0935         estimate D2E/DX2                !
 ! R18   R(8,19)                 1.0937         estimate D2E/DX2                !
 ! R19   R(9,10)                 1.4458         estimate D2E/DX2                !
 ! R20   R(9,20)                 1.0957         estimate D2E/DX2                !
 ! R21   R(9,21)                 1.0972         estimate D2E/DX2                !
 ! R22   R(10,22)                1.0163         estimate D2E/DX2                !
 ! A1    A(2,1,5)              119.6366         estimate D2E/DX2                !
 ! A2    A(2,1,14)             119.6661         estimate D2E/DX2                !
 ! A3    A(5,1,14)             120.6966         estimate D2E/DX2                !
 ! A4    A(1,2,6)              120.3199         estimate D2E/DX2                !
 ! A5    A(1,2,15)             119.2291         estimate D2E/DX2                !
 ! A6    A(6,2,15)             120.4506         estimate D2E/DX2                !
 ! A7    A(4,3,5)              120.6889         estimate D2E/DX2                !
 ! A8    A(4,3,16)             119.8012         estimate D2E/DX2                !
 ! A9    A(5,3,16)             119.5098         estimate D2E/DX2                !
 ! A10   A(3,4,6)              118.4749         estimate D2E/DX2                !
 ! A11   A(3,4,9)              118.7844         estimate D2E/DX2                !
 ! A12   A(6,4,9)              122.7128         estimate D2E/DX2                !
 ! A13   A(1,5,3)              120.3574         estimate D2E/DX2                !
 ! A14   A(1,5,12)             119.8311         estimate D2E/DX2                !
 ! A15   A(3,5,12)             119.8113         estimate D2E/DX2                !
 ! A16   A(2,6,4)              120.5146         estimate D2E/DX2                !
 ! A17   A(2,6,13)             117.5782         estimate D2E/DX2                !
 ! A18   A(4,6,13)             121.9055         estimate D2E/DX2                !
 ! A19   A(8,7,10)             113.9847         estimate D2E/DX2                !
 ! A20   A(8,7,11)             122.6254         estimate D2E/DX2                !
 ! A21   A(10,7,11)            123.3738         estimate D2E/DX2                !
 ! A22   A(7,8,17)             109.2091         estimate D2E/DX2                !
 ! A23   A(7,8,18)             109.4595         estimate D2E/DX2                !
 ! A24   A(7,8,19)             110.8525         estimate D2E/DX2                !
 ! A25   A(17,8,18)            109.474          estimate D2E/DX2                !
 ! A26   A(17,8,19)            109.336          estimate D2E/DX2                !
 ! A27   A(18,8,19)            108.4902         estimate D2E/DX2                !
 ! A28   A(4,9,10)             111.4732         estimate D2E/DX2                !
 ! A29   A(4,9,20)             111.7699         estimate D2E/DX2                !
 ! A30   A(4,9,21)             110.5503         estimate D2E/DX2                !
 ! A31   A(10,9,20)            109.384          estimate D2E/DX2                !
 ! A32   A(10,9,21)            107.6863         estimate D2E/DX2                !
 ! A33   A(20,9,21)            105.7398         estimate D2E/DX2                !
 ! A34   A(7,10,9)             121.9156         estimate D2E/DX2                !
 ! A35   A(7,10,22)            119.1764         estimate D2E/DX2                !
 ! A36   A(9,10,22)            118.9023         estimate D2E/DX2                !
 ! D1    D(5,1,2,6)             -0.2151         estimate D2E/DX2                !
 ! D2    D(5,1,2,15)           179.5394         estimate D2E/DX2                !
 ! D3    D(14,1,2,6)          -179.9276         estimate D2E/DX2                !
 ! D4    D(14,1,2,15)           -0.173          estimate D2E/DX2                !
 ! D5    D(2,1,5,3)              0.2315         estimate D2E/DX2                !
 ! D6    D(2,1,5,12)          -179.6424         estimate D2E/DX2                !
 ! D7    D(14,1,5,3)           179.9409         estimate D2E/DX2                !
 ! D8    D(14,1,5,12)            0.067          estimate D2E/DX2                !
 ! D9    D(1,2,6,4)             -0.4001         estimate D2E/DX2                !
 ! D10   D(1,2,6,13)           179.1301         estimate D2E/DX2                !
 ! D11   D(15,2,6,4)           179.8484         estimate D2E/DX2                !
 ! D12   D(15,2,6,13)           -0.6214         estimate D2E/DX2                !
 ! D13   D(5,3,4,6)             -0.9618         estimate D2E/DX2                !
 ! D14   D(5,3,4,9)           -179.0926         estimate D2E/DX2                !
 ! D15   D(16,3,4,6)           178.9943         estimate D2E/DX2                !
 ! D16   D(16,3,4,9)             0.8635         estimate D2E/DX2                !
 ! D17   D(4,3,5,1)              0.3666         estimate D2E/DX2                !
 ! D18   D(4,3,5,12)          -179.7595         estimate D2E/DX2                !
 ! D19   D(16,3,5,1)          -179.5896         estimate D2E/DX2                !
 ! D20   D(16,3,5,12)            0.2843         estimate D2E/DX2                !
 ! D21   D(3,4,6,2)              0.9763         estimate D2E/DX2                !
 ! D22   D(3,4,6,13)          -178.5332         estimate D2E/DX2                !
 ! D23   D(9,4,6,2)            179.0292         estimate D2E/DX2                !
 ! D24   D(9,4,6,13)            -0.4803         estimate D2E/DX2                !
 ! D25   D(3,4,9,10)            93.4429         estimate D2E/DX2                !
 ! D26   D(3,4,9,20)          -143.7957         estimate D2E/DX2                !
 ! D27   D(3,4,9,21)           -26.3009         estimate D2E/DX2                !
 ! D28   D(6,4,9,10)           -84.6043         estimate D2E/DX2                !
 ! D29   D(6,4,9,20)            38.1571         estimate D2E/DX2                !
 ! D30   D(6,4,9,21)           155.6519         estimate D2E/DX2                !
 ! D31   D(10,7,8,17)           84.791          estimate D2E/DX2                !
 ! D32   D(10,7,8,18)         -155.3725         estimate D2E/DX2                !
 ! D33   D(10,7,8,19)          -35.7346         estimate D2E/DX2                !
 ! D34   D(11,7,8,17)          -93.7927         estimate D2E/DX2                !
 ! D35   D(11,7,8,18)           26.0438         estimate D2E/DX2                !
 ! D36   D(11,7,8,19)          145.6818         estimate D2E/DX2                !
 ! D37   D(8,7,10,9)          -179.4483         estimate D2E/DX2                !
 ! D38   D(8,7,10,22)            1.4336         estimate D2E/DX2                !
 ! D39   D(11,7,10,9)           -0.8767         estimate D2E/DX2                !
 ! D40   D(11,7,10,22)        -179.9948         estimate D2E/DX2                !
 ! D41   D(4,9,10,7)           175.4268         estimate D2E/DX2                !
 ! D42   D(4,9,10,22)           -5.4527         estimate D2E/DX2                !
 ! D43   D(20,9,10,7)           51.3089         estimate D2E/DX2                !
 ! D44   D(20,9,10,22)        -129.5706         estimate D2E/DX2                !
 ! D45   D(21,9,10,7)          -63.1494         estimate D2E/DX2                !
 ! D46   D(21,9,10,22)         115.9711         estimate D2E/DX2                !
 --------------------------------------------------------------------------------
 Trust Radius=3.00D-01 FncErr=1.00D-07 GrdErr=1.00D-06
 Number of steps in this run=    114 maximum allowed number of steps=    132.
 GradGradGradGradGradGradGradGradGradGradGradGradGradGradGradGradGradGrad

                          Input orientation:                          
 ---------------------------------------------------------------------
 Center     Atomic      Atomic             Coordinates (Angstroms)
 Number     Number       Type             X           Y           Z
 ---------------------------------------------------------------------
      1          6           0        2.441056   -1.265216   -0.078756
      2          6           0        1.276290   -0.551389    0.208022
      3          6           0        2.749676   -1.690615    2.281022
      4          6           0        1.570157   -0.984224    2.585656
      5          6           0        3.174897   -1.830289    0.959488
      6          6           0        0.843975   -0.406950    1.530998
      7          6           0        1.335469    0.779586    5.873721
      8          6           0        1.938437    2.095750    6.281857
      9          6           0        1.162259   -0.842102    4.027915
     10          7           0        1.658725    0.389624    4.599423
     11          8           0        0.597513    0.131072    6.612693
     12         17           0        4.616626   -2.703519    0.612389
     13         17           0       -0.594542    0.510059    1.807015
     14          1           0        2.767884   -1.369851   -1.110615
     15          1           0        0.711526   -0.105778   -0.608502
     16          1           0        3.338315   -2.132865    3.083562
     17          1           0        1.295385    2.908930    5.935065
     18          1           0        2.021584    2.136097    7.371397
     19          1           0        2.937365    2.216002    5.853067
     20          1           0        0.074139   -0.886446    4.148755
     21          1           0        1.562032   -1.671398    4.624732
     22          1           0        2.275634    0.975448    4.043504
 ---------------------------------------------------------------------
                    Distance matrix (angstroms):
                    1          2          3          4          5
     1  C    0.000000
     2  C    1.395876   0.000000
     3  C    2.417595   2.786760   0.000000
     4  C    2.817182   2.434512   1.408210   0.000000
     5  C    1.391324   2.409356   1.395268   2.436275   0.000000
     6  C    2.424582   1.399295   2.417028   1.404595   2.790289
     7  C    6.390267   5.820236   4.583597   3.738646   5.860429
     8  C    7.211526   6.658623   5.567885   4.825326   6.728315
     9  C    4.321931   3.832636   2.508286   1.505553   3.800324
    10  N    5.023534   4.507346   3.300386   2.439377   4.525032
    11  O    7.079814   6.476597   5.168532   4.290333   6.515257
    12  Cl   2.698056   3.994124   2.701077   4.016309   1.720928
    13  Cl   3.990312   2.680199   4.031307   2.743188   4.517101
    14  H    1.087427   2.152565   3.406820   3.904571   2.159396
    15  H    2.148535   1.088227   3.874934   3.422216   3.391272
    16  H    3.399727   3.875790   1.089106   2.166488   2.151731
    17  H    7.409595   6.691278   6.051678   5.143023   7.123842
    18  H    8.200590   7.687132   6.409818   5.730926   7.627249
    19  H    6.895776   6.502628   5.296828   4.773540   6.354212
    20  H    4.859795   4.133619   3.360597   2.165851   4.547193
    21  H    4.802132   4.565457   2.627516   2.151768   4.007567
    22  H    4.694781   4.247452   3.230936   2.542309   4.265206
                    6          7          8          9         10
     6  C    0.000000
     7  C    4.528650   0.000000
     8  C    5.480147   1.504138   0.000000
     9  C    2.554457   2.463103   3.783343   0.000000
    10  N    3.273160   1.371277   2.412403   1.445770   0.000000
    11  O    5.116037   1.229322   2.401560   2.819058   2.290476
    12  Cl   4.511205   7.111935   7.896109   5.202243   5.849201
    13  Cl   1.728127   4.509510   5.380948   3.138007   3.590161
    14  H    3.406864   7.446666   8.206522   5.409347   6.077049
    15  H    2.164650   6.572092   7.336830   4.716110   5.316493
    16  H    3.407487   4.503193   5.483606   2.700571   3.388481
    17  H    5.531241   2.130604   1.093180   4.210129   2.874519
    18  H    6.477971   2.133989   1.093454   4.559275   3.296313
    19  H    5.471968   2.151694   1.093699   3.979219   2.557772
    20  H    2.770417   2.709636   4.113299   1.095708   2.083836
    21  H    3.418424   2.760186   4.132692   1.097151   2.063443
    22  H    3.205207   2.066873   2.525669   2.131510   1.016274
                   11         12         13         14         15
    11  O    0.000000
    12  Cl   7.758339   0.000000
    13  Cl   4.965800   6.237827   0.000000
    14  H    8.161665   2.857493   4.832446   0.000000
    15  H    7.225978   4.846509   2.814213   2.465483   0.000000
    16  H    5.009209   2.840145   4.907339   4.301012   4.963914
    17  H    2.943247   8.417904   5.134900   8.373639   7.228252
    18  H    2.573662   8.708635   6.360068   9.208321   8.391725
    19  H    3.224728   7.381485   5.635170   7.834535   7.217818
    20  H    2.716663   6.036707   2.807330   5.928821   4.862839
    21  H    2.851523   5.147302   4.165224   5.868493   5.528225
    22  H    3.182734   5.548657   3.668294   5.683984   5.025599
                   16         17         18         19         20
    16  H    0.000000
    17  H    6.142013   0.000000
    18  H    6.192201   1.785410   0.000000
    19  H    5.171418   1.784088   1.774927   0.000000
    20  H    3.652813   4.368893   4.828430   4.552794   0.000000
    21  H    2.396526   4.771527   4.717242   4.302583   1.748294
    22  H    3.422337   2.877020   3.533628   2.291589   2.885188
                   21         22
    21  H    0.000000
    22  H    2.802293   0.000000
 Stoichiometry    C9H9Cl2NO
 Framework group  C1[X(C9H9Cl2NO)]
 Deg. of freedom    60
 Full point group                 C1      NOp   1
 Largest Abelian subgroup         C1      NOp   1
 Largest concise Abelian subgroup C1      NOp   1
                         Standard orientation:                         
 ---------------------------------------------------------------------
 Center     Atomic      Atomic             Coordinates (Angstroms)
 Number     Number       Type             X           Y           Z
 ---------------------------------------------------------------------
      1          6           0        2.806683    0.766892    0.417276
      2          6           0        1.806247    1.739893    0.387860
      3          6           0        1.228338   -0.866983   -0.409795
      4          6           0        0.211459    0.106039   -0.457139
      5          6           0        2.513150   -0.533935    0.020450
      6          6           0        0.515391    1.413052   -0.042132
      7          6           0       -3.330467   -0.976275    0.053576
      8          6           0       -4.039728   -1.302597    1.339225
      9          6           0       -1.164737   -0.304972   -0.908630
     10          7           0       -2.006081   -0.658370    0.212753
     11          8           0       -3.901168   -0.970558   -1.035231
     12         17           0        3.740378   -1.739610    0.063482
     13         17           0       -0.673914    2.666760   -0.028294
     14          1           0        3.805862    1.032307    0.754460
     15          1           0        2.041202    2.753444    0.706842
     16          1           0        1.012053   -1.891034   -0.710943
     17          1           0       -4.381222   -0.375426    1.806963
     18          1           0       -4.900561   -1.942896    1.127985
     19          1           0       -3.374450   -1.831716    2.027423
     20          1           0       -1.651962    0.481995   -1.495035
     21          1           0       -1.108099   -1.177819   -1.570951
     22          1           0       -1.598810   -0.684039    1.143497
 ---------------------------------------------------------------------
 Rotational constants (GHZ):      0.8670534      0.3287149      0.2562323
 Standard basis: 6-31G(d) (6D, 7F)
 There are   221 symmetry adapted basis functions of A   symmetry.
 Integral buffers will be    131072 words long.
 Raffenetti 2 integral format.
 Two-electron integral symmetry is turned on.
   221 basis functions,   448 primitive gaussians,   221 cartesian basis functions
    56 alpha electrons       56 beta electrons
       nuclear repulsion energy       929.2726579446 Hartrees.
 NAtoms=   22 NActive=   22 NUniq=   22 SFac= 1.00D+00 NAtFMM=   60 NAOKFM=F Big=F
 One-electron integrals computed using PRISM.
 NBasis=   221 RedAO= T  NBF=   221
 NBsUse=   221 1.00D-06 NBFU=   221
 Harris functional with IExCor=  402 diagonalized for initial guess.
 ExpMin= 1.43D-01 ExpMax= 2.52D+04 ExpMxC= 3.78D+03 IAcc=3 IRadAn=         5 AccDes= 0.00D+00
 HarFok:  IExCor=  402 AccDes= 0.00D+00 IRadAn=         5 IDoV= 1
 ScaDFX=  1.000000  1.000000  1.000000  1.000000
 FoFCou: FMM=F IPFlag=           0 FMFlag=      100000 FMFlg1=           0
         NFxFlg=           0 DoJE=T BraDBF=F KetDBF=T FulRan=T
         Omega=  0.000000  0.000000  1.000000  0.000000  0.000000 ICntrl=     500 IOpCl=  0
         NMat0=    1 NMatS0=    1 NMatT0=    0 NMatD0=    1 NMtDS0=    0 NMtDT0=    0
         I1Cent=           4 NGrid=           0.
 Petite list used in FoFCou.
 Initial guess orbital symmetries:
       Occupied  (A) (A) (A) (A) (A) (A) (A) (A) (A) (A) (A) (A)
                 (A) (A) (A) (A) (A) (A) (A) (A) (A) (A) (A) (A)
                 (A) (A) (A) (A) (A) (A) (A) (A) (A) (A) (A) (A)
                 (A) (A) (A) (A) (A) (A) (A) (A) (A) (A) (A) (A)
                 (A) (A) (A) (A) (A) (A) (A) (A)
       Virtual   (A) (A) (A) (A) (A) (A) (A) (A) (A) (A) (A) (A)
                 (A) (A) (A) (A) (A) (A) (A) (A) (A) (A) (A) (A)
                 (A) (A) (A) (A) (A) (A) (A) (A) (A) (A) (A) (A)
                 (A) (A) (A) (A) (A) (A) (A) (A) (A) (A) (A) (A)
                 (A) (A) (A) (A) (A) (A) (A) (A) (A) (A) (A) (A)
                 (A) (A) (A) (A) (A) (A) (A) (A) (A) (A) (A) (A)
                 (A) (A) (A) (A) (A) (A) (A) (A) (A) (A) (A) (A)
                 (A) (A) (A) (A) (A) (A) (A) (A) (A) (A) (A) (A)
                 (A) (A) (A) (A) (A) (A) (A) (A) (A) (A) (A) (A)
                 (A) (A) (A) (A) (A) (A) (A) (A) (A) (A) (A) (A)
                 (A) (A) (A) (A) (A) (A) (A) (A) (A) (A) (A) (A)
                 (A) (A) (A) (A) (A) (A) (A) (A) (A) (A) (A) (A)
                 (A) (A) (A) (A) (A) (A) (A) (A) (A) (A) (A) (A)
                 (A) (A) (A) (A) (A) (A) (A) (A) (A)
 The electronic state of the initial guess is 1-A.
 Requested convergence on RMS density matrix=1.00D-08 within 128 cycles.
 Requested convergence on MAX density matrix=1.00D-06.
 Requested convergence on             energy=1.00D-06.
 No special actions if energy rises.
 Integral accuracy reduced to 1.0D-05 until final iterations.
 Initial convergence to 1.0D-05 achieved.  Increase integral accuracy.
 SCF Done:  E(RB3LYP) =  -1398.76035918     A.U. after   15 cycles
             Convg  =    0.4354D-08             -V/T =  2.0052
 Calling FoFJK, ICntrl=      2127 FMM=F ISym2X=0 I1Cent= 0 IOpClX= 0 NMat=1 NMatS=1 NMatT=0.
 ***** Axes restored to original set *****
 -------------------------------------------------------------------
 Center     Atomic                   Forces (Hartrees/Bohr)
 Number     Number              X              Y              Z
 -------------------------------------------------------------------
      1        6          -0.004492201    0.003374883   -0.004050762
      2        6           0.002906073   -0.001691561   -0.001128864
      3        6          -0.003923963    0.002123709   -0.001022970
      4        6           0.004790288   -0.002110013    0.000574252
      5        6          -0.011282887    0.006748566    0.006133630
      6        6           0.012586447   -0.006996161   -0.007946836
      7        6          -0.006234977   -0.006991364    0.002523326
      8        6           0.005915709    0.003282852    0.003913758
      9        6          -0.003883038   -0.008624631    0.005577072
     10        7           0.003426069    0.011842529    0.002103039
     11        8           0.004306548   -0.000402287   -0.008833538
     12       17           0.013375135   -0.008113870   -0.002990940
     13       17          -0.010443615    0.006030461    0.004521398
     14        1           0.000168097   -0.000480672    0.001993258
     15        1           0.000023444   -0.000543962    0.002985895
     16        1          -0.002493715    0.000949519   -0.001311081
     17        1           0.000446502    0.003077446    0.000710813
     18        1          -0.002145208    0.000570208   -0.001399736
     19        1           0.000861177    0.003786498   -0.000875565
     20        1          -0.000000837    0.001240306   -0.001418348
     21        1          -0.000282297   -0.003087311   -0.002919461
     22        1          -0.003622749   -0.003985143    0.002861659
 -------------------------------------------------------------------
 Cartesian Forces:  Max     0.013375135 RMS     0.005004202

 GradGradGradGradGradGradGradGradGradGradGradGradGradGradGradGradGradGrad
 Berny optimization.
 Internal  Forces:  Max     0.015925621 RMS     0.003445058
 Search for a local minimum.
 Step number   1 out of a maximum of  114
 All quantities printed in internal units (Hartrees-Bohrs-Radians)
 Mixed Optimization -- RFO/linear search
 Second derivative matrix not updated -- first step.
 ITU=  0
     Eigenvalues ---    0.00692   0.00711   0.01086   0.01263   0.01476
     Eigenvalues ---    0.01482   0.02019   0.02059   0.02070   0.02072
     Eigenvalues ---    0.02105   0.02120   0.02166   0.02167   0.02182
     Eigenvalues ---    0.05125   0.06558   0.07356   0.07509   0.09981
     Eigenvalues ---    0.13253   0.15999   0.16000   0.16000   0.16000
     Eigenvalues ---    0.16000   0.16000   0.16000   0.21913   0.22000
     Eigenvalues ---    0.22371   0.23492   0.24598   0.24985   0.24993
     Eigenvalues ---    0.24999   0.25000   0.25000   0.31802   0.31947
     Eigenvalues ---    0.32707   0.33485   0.33999   0.34161   0.34389
     Eigenvalues ---    0.34417   0.34448   0.34916   0.35018   0.35112
     Eigenvalues ---    0.38805   0.41329   0.42024   0.44886   0.44938
     Eigenvalues ---    0.45768   0.46111   0.46734   0.50732   0.91370
 RFO step:  Lambda=-4.41043630D-03 EMin= 6.92494881D-03
 Linear search not attempted -- first point.
 Iteration  1 RMS(Cart)=  0.05762477 RMS(Int)=  0.00102646
 Iteration  2 RMS(Cart)=  0.00176688 RMS(Int)=  0.00006566
 Iteration  3 RMS(Cart)=  0.00000177 RMS(Int)=  0.00006566
 Iteration  4 RMS(Cart)=  0.00000000 RMS(Int)=  0.00006566
 Variable       Old X    -DE/DX   Delta X   Delta X   Delta X     New X
                                 (Linear)    (Quad)   (Total)
    R1        2.63782  -0.00318   0.00000  -0.00643  -0.00644   2.63139
    R2        2.62922   0.00300   0.00000   0.00671   0.00670   2.63592
    R3        2.05494  -0.00179   0.00000  -0.00505  -0.00505   2.04989
    R4        2.64428  -0.00181   0.00000  -0.00395  -0.00395   2.64034
    R5        2.05645  -0.00248   0.00000  -0.00698  -0.00698   2.04947
    R6        2.66113  -0.00611   0.00000  -0.01404  -0.01404   2.64709
    R7        2.63668  -0.00069   0.00000  -0.00143  -0.00144   2.63524
    R8        2.05811  -0.00270   0.00000  -0.00763  -0.00763   2.05048
    R9        2.65430  -0.00079   0.00000  -0.00216  -0.00215   2.65215
   R10        2.84508   0.00254   0.00000   0.00789   0.00789   2.85297
   R11        3.25208   0.01593   0.00000   0.04694   0.04694   3.29902
   R12        3.26569   0.01262   0.00000   0.03806   0.03806   3.30374
   R13        2.84241   0.01205   0.00000   0.03721   0.03721   2.87962
   R14        2.59134  -0.00348   0.00000  -0.00680  -0.00680   2.58454
   R15        2.32308  -0.00768   0.00000  -0.00837  -0.00837   2.31471
   R16        2.06581   0.00180   0.00000   0.00516   0.00516   2.07097
   R17        2.06633  -0.00154   0.00000  -0.00441  -0.00441   2.06192
   R18        2.06679   0.00155   0.00000   0.00444   0.00444   2.07123
   R19        2.73211   0.01094   0.00000   0.02786   0.02786   2.75997
   R20        2.07059  -0.00021   0.00000  -0.00059  -0.00059   2.06999
   R21        2.07331   0.00064   0.00000   0.00187   0.00187   2.07518
   R22        1.92048  -0.00606   0.00000  -0.01336  -0.01336   1.90712
    A1        2.08805  -0.00149   0.00000  -0.00508  -0.00509   2.08297
    A2        2.08857   0.00177   0.00000   0.00877   0.00876   2.09733
    A3        2.10655  -0.00028   0.00000  -0.00366  -0.00367   2.10288
    A4        2.09998  -0.00013   0.00000   0.00006   0.00006   2.10004
    A5        2.08094   0.00186   0.00000   0.01090   0.01090   2.09184
    A6        2.10226  -0.00173   0.00000  -0.01094  -0.01095   2.09131
    A7        2.10642   0.00174   0.00000   0.00704   0.00704   2.11346
    A8        2.09093  -0.00199   0.00000  -0.01030  -0.01031   2.08062
    A9        2.08584   0.00024   0.00000   0.00326   0.00325   2.08909
   A10        2.06778  -0.00149   0.00000  -0.00720  -0.00722   2.06055
   A11        2.07318   0.00213   0.00000   0.00928   0.00924   2.08241
   A12        2.14174  -0.00064   0.00000  -0.00163  -0.00167   2.14008
   A13        2.10063  -0.00058   0.00000  -0.00148  -0.00149   2.09914
   A14        2.09145   0.00066   0.00000   0.00220   0.00219   2.09364
   A15        2.09110  -0.00008   0.00000  -0.00070  -0.00070   2.09040
   A16        2.10338   0.00195   0.00000   0.00680   0.00679   2.11017
   A17        2.05213   0.00323   0.00000   0.01317   0.01314   2.06527
   A18        2.12765  -0.00518   0.00000  -0.01988  -0.01990   2.10775
   A19        1.98941   0.00697   0.00000   0.02738   0.02738   2.01679
   A20        2.14022   0.00362   0.00000   0.01423   0.01422   2.15444
   A21        2.15328  -0.01059   0.00000  -0.04165  -0.04165   2.11163
   A22        1.90606   0.00255   0.00000   0.01169   0.01157   1.91763
   A23        1.91043  -0.00158   0.00000  -0.00999  -0.01005   1.90038
   A24        1.93474   0.00457   0.00000   0.03203   0.03186   1.96660
   A25        1.91068  -0.00213   0.00000  -0.02151  -0.02151   1.88917
   A26        1.90827  -0.00346   0.00000  -0.02013  -0.02036   1.88792
   A27        1.89351  -0.00005   0.00000   0.00718   0.00709   1.90061
   A28        1.94558  -0.00137   0.00000  -0.00744  -0.00759   1.93798
   A29        1.95075  -0.00022   0.00000  -0.01533  -0.01561   1.93514
   A30        1.92947  -0.00246   0.00000  -0.01471  -0.01478   1.91469
   A31        1.90911  -0.00073   0.00000  -0.01240  -0.01266   1.89645
   A32        1.87948   0.00463   0.00000   0.04497   0.04501   1.92449
   A33        1.84551   0.00044   0.00000   0.00788   0.00775   1.85326
   A34        2.12783  -0.00278   0.00000  -0.01232  -0.01236   2.11547
   A35        2.08002   0.00202   0.00000   0.01010   0.01005   2.09007
   A36        2.07524   0.00076   0.00000   0.00245   0.00241   2.07764
    D1       -0.00375   0.00011   0.00000   0.00478   0.00479   0.00104
    D2        3.13355   0.00023   0.00000   0.00977   0.00984  -3.13979
    D3       -3.14033  -0.00008   0.00000  -0.00330  -0.00336   3.13950
    D4       -0.00302   0.00004   0.00000   0.00169   0.00169  -0.00133
    D5        0.00404   0.00000   0.00000  -0.00062  -0.00064   0.00340
    D6       -3.13535  -0.00017   0.00000  -0.00757  -0.00761   3.14023
    D7        3.14056   0.00019   0.00000   0.00759   0.00758  -3.13505
    D8        0.00117   0.00003   0.00000   0.00064   0.00061   0.00178
    D9       -0.00698  -0.00004   0.00000  -0.00120  -0.00122  -0.00821
   D10        3.12641   0.00023   0.00000   0.00992   0.01000   3.13641
   D11        3.13895  -0.00017   0.00000  -0.00631  -0.00632   3.13262
   D12       -0.01085   0.00010   0.00000   0.00482   0.00490  -0.00594
   D13       -0.01679   0.00023   0.00000   0.01062   0.01063  -0.00616
   D14       -3.12576  -0.00005   0.00000  -0.00439  -0.00437  -3.13013
   D15        3.12404   0.00043   0.00000   0.01822   0.01818  -3.14097
   D16        0.01507   0.00014   0.00000   0.00322   0.00318   0.01825
   D17        0.00640  -0.00015   0.00000  -0.00713  -0.00717  -0.00077
   D18       -3.13739   0.00002   0.00000  -0.00018  -0.00021  -3.13761
   D19       -3.13443  -0.00035   0.00000  -0.01471  -0.01475   3.13401
   D20        0.00496  -0.00018   0.00000  -0.00776  -0.00779  -0.00283
   D21        0.01704  -0.00012   0.00000  -0.00644  -0.00642   0.01062
   D22       -3.11599  -0.00045   0.00000  -0.01822  -0.01808  -3.13407
   D23        3.12465   0.00023   0.00000   0.00941   0.00931   3.13396
   D24       -0.00838  -0.00010   0.00000  -0.00237  -0.00235  -0.01073
   D25        1.63089   0.00217   0.00000   0.05302   0.05293   1.68382
   D26       -2.50971   0.00007   0.00000   0.02040   0.02045  -2.48926
   D27       -0.45904  -0.00112   0.00000   0.01109   0.01118  -0.44786
   D28       -1.47662   0.00189   0.00000   0.03744   0.03731  -1.43931
   D29        0.66597  -0.00022   0.00000   0.00482   0.00483   0.67080
   D30        2.71664  -0.00140   0.00000  -0.00450  -0.00444   2.71220
   D31        1.47988   0.00073   0.00000   0.01239   0.01247   1.49235
   D32       -2.71176  -0.00127   0.00000  -0.01280  -0.01285  -2.72461
   D33       -0.62369   0.00050   0.00000   0.00966   0.00960  -0.61409
   D34       -1.63699   0.00086   0.00000   0.01489   0.01499  -1.62200
   D35        0.45455  -0.00115   0.00000  -0.01031  -0.01033   0.44422
   D36        2.54263   0.00063   0.00000   0.01216   0.01212   2.55474
   D37       -3.13196   0.00066   0.00000   0.03141   0.03142  -3.10055
   D38        0.02502   0.00033   0.00000   0.01389   0.01385   0.03887
   D39       -0.01530   0.00077   0.00000   0.02980   0.02984   0.01453
   D40       -3.14150   0.00044   0.00000   0.01228   0.01227  -3.12923
   D41        3.06178  -0.00046   0.00000  -0.02144  -0.02140   3.04037
   D42       -0.09517  -0.00012   0.00000  -0.00390  -0.00389  -0.09906
   D43        0.89551   0.00129   0.00000   0.01214   0.01211   0.90762
   D44       -2.26143   0.00163   0.00000   0.02967   0.02962  -2.23182
   D45       -1.10216  -0.00131   0.00000  -0.01472  -0.01469  -1.11685
   D46        2.02408  -0.00097   0.00000   0.00282   0.00282   2.02690
         Item               Value     Threshold  Converged?
 Maximum Force            0.015926     0.000450     NO 
 RMS     Force            0.003445     0.000300     NO 
 Maximum Displacement     0.252251     0.001800     NO 
 RMS     Displacement     0.058463     0.001200     NO 
 Predicted change in Energy=-2.263565D-03
 GradGradGradGradGradGradGradGradGradGradGradGradGradGradGradGradGradGrad

                          Input orientation:                          
 ---------------------------------------------------------------------
 Center     Atomic      Atomic             Coordinates (Angstroms)
 Number     Number       Type             X           Y           Z
 ---------------------------------------------------------------------
      1          6           0        2.429169   -1.271841   -0.096537
      2          6           0        1.291206   -0.532033    0.214424
      3          6           0        2.746484   -1.732114    2.256952
      4          6           0        1.602418   -0.993992    2.586311
      5          6           0        3.157387   -1.870490    0.931560
      6          6           0        0.883623   -0.389775    1.543266
      7          6           0        1.353300    0.786412    5.865344
      8          6           0        1.893900    2.142039    6.303609
      9          6           0        1.202549   -0.857804    4.035739
     10          7           0        1.695424    0.395886    4.600041
     11          8           0        0.634362    0.087045    6.568464
     12         17           0        4.585436   -2.803258    0.559636
     13         17           0       -0.548281    0.556789    1.875087
     14          1           0        2.742229   -1.382274   -1.129249
     15          1           0        0.717886   -0.064449   -0.578597
     16          1           0        3.315974   -2.207653    3.048730
     17          1           0        1.218342    2.937962    5.970218
     18          1           0        1.940724    2.168000    7.393415
     19          1           0        2.891751    2.349487    5.900397
     20          1           0        0.112940   -0.886610    4.144414
     21          1           0        1.589918   -1.710972    4.608413
     22          1           0        2.297657    0.981569    4.040769
 ---------------------------------------------------------------------
                    Distance matrix (angstroms):
                    1          2          3          4          5
     1  C    0.000000
     2  C    1.392470   0.000000
     3  C    2.418977   2.780279   0.000000
     4  C    2.821062   2.436413   1.400781   0.000000
     5  C    1.394871   2.405906   1.394509   2.434005   0.000000
     6  C    2.419857   1.397205   2.404470   1.403456   2.781494
     7  C    6.398274   5.803020   4.615671   3.739512   5.886941
     8  C    7.273442   6.677729   5.666691   4.872160   6.823173
     9  C    4.330326   3.836200   2.512416   1.509729   3.805634
    10  N    5.037613   4.500895   3.335143   2.448575   4.553192
    11  O    7.034923   6.417829   5.134154   4.238315   6.478603
    12  Cl   2.724938   4.016166   2.722128   4.034756   1.745769
    13  Cl   4.012031   2.706852   4.029935   2.745226   4.529228
    14  H    1.084756   2.152635   3.404227   3.905806   2.158157
    15  H    2.149108   1.084533   3.864797   3.415127   3.390210
    16  H    3.399245   3.865317   1.085065   2.150134   2.149706
    17  H    7.482917   6.721260   6.158990   5.201788   7.229743
    18  H    8.256541   7.697399   6.499491   5.763756   7.716556
    19  H    7.020770   6.572304   5.473140   4.881024   6.524424
    20  H    4.847575   4.118113   3.348573   2.158184   4.534215
    21  H    4.799347   4.559196   2.620584   2.145487   4.000207
    22  H    4.713008   4.236135   3.278341   2.549832   4.305874
                    6          7          8          9         10
     6  C    0.000000
     7  C    4.503817   0.000000
     8  C    5.485581   1.523827   0.000000
     9  C    2.556010   2.464473   3.823645   0.000000
    10  N    3.258858   1.367680   2.447567   1.460515   0.000000
    11  O    5.053920   1.224893   2.424785   2.762295   2.257415
    12  Cl   4.527235   7.175164   8.043230   5.226089   5.908602
    13  Cl   1.748266   4.426159   5.299912   3.120079   3.533479
    14  H    3.403206   7.453633   8.269692   5.415051   6.089533
    15  H    2.153046   6.530856   7.322319   4.707059   5.290159
    16  H    3.389312   4.555198   5.615723   2.694967   3.436738
    17  H    5.548312   2.158328   1.095911   4.260317   2.926968
    18  H    6.471778   2.142161   1.091121   4.579780   3.317152
    19  H    5.524556   2.193460   1.096048   4.076405   2.634138
    20  H    2.758037   2.701684   4.123912   1.095393   2.087258
    21  H    3.411678   2.805849   4.220401   1.098138   2.109515
    22  H    3.180817   2.063727   2.574909   2.140697   1.009205
                   11         12         13         14         15
    11  O    0.000000
    12  Cl   7.750539   0.000000
    13  Cl   4.862828   6.274981   0.000000
    14  H    8.115219   2.875576   4.859368   0.000000
    15  H    7.149155   4.873868   2.830138   2.477467   0.000000
    16  H    4.984497   2.856898   4.894082   4.297201   4.949836
    17  H    2.970969   8.577490   5.055792   8.449207   7.221627
    18  H    2.591813   8.854855   6.264430   9.267289   8.368520
    19  H    3.265082   7.612036   5.590233   7.960170   7.247768
    20  H    2.663814   6.043790   2.769559   5.913574   4.832053
    21  H    2.826261   5.153525   4.145565   5.861453   5.511493
    22  H    3.155308   5.628244   3.601385   5.702146   4.992831
                   16         17         18         19         20
    16  H    0.000000
    17  H    6.277938   0.000000
    18  H    6.317748   1.772052   0.000000
    19  H    5.392541   1.775239   1.779465   0.000000
    20  H    3.633883   4.379820   4.819486   4.612764   0.000000
    21  H    2.378776   4.858515   4.788081   4.455482   1.753948
    22  H    3.491740   2.952146   3.574250   2.383771   2.876425
                   21         22
    21  H    0.000000
    22  H    2.841284   0.000000
 Stoichiometry    C9H9Cl2NO
 Framework group  C1[X(C9H9Cl2NO)]
 Deg. of freedom    60
 Full point group                 C1      NOp   1
 Largest Abelian subgroup         C1      NOp   1
 Largest concise Abelian subgroup C1      NOp   1
                         Standard orientation:                         
 ---------------------------------------------------------------------
 Center     Atomic      Atomic             Coordinates (Angstroms)
 Number     Number       Type             X           Y           Z
 ---------------------------------------------------------------------
      1          6           0        2.799597    0.821414    0.426704
      2          6           0        1.772904    1.761180    0.385308
      3          6           0        1.265420   -0.858687   -0.394889
      4          6           0        0.222600    0.075207   -0.445449
      5          6           0        2.539976   -0.492301    0.036300
      6          6           0        0.495007    1.391497   -0.041887
      7          6           0       -3.325767   -0.990820    0.061136
      8          6           0       -4.115592   -1.239766    1.340296
      9          6           0       -1.145439   -0.368581   -0.904584
     10          7           0       -2.005011   -0.680661    0.234207
     11          8           0       -3.822876   -1.030533   -1.057645
     12         17           0        3.815905   -1.683018    0.079964
     13         17           0       -0.757025    2.611446   -0.065855
     14          1           0        3.791270    1.111625    0.756943
     15          1           0        1.966035    2.785316    0.685406
     16          1           0        1.075621   -1.881580   -0.703163
     17          1           0       -4.482589   -0.288702    1.742556
     18          1           0       -4.977279   -1.867094    1.106845
     19          1           0       -3.518421   -1.731564    2.116725
     20          1           0       -1.627703    0.410812   -1.504462
     21          1           0       -1.049892   -1.244287   -1.560265
     22          1           0       -1.612158   -0.663767    1.163657
 ---------------------------------------------------------------------
 Rotational constants (GHZ):      0.8892367      0.3235360      0.2551746
 Standard basis: 6-31G(d) (6D, 7F)
 There are   221 symmetry adapted basis functions of A   symmetry.
 Integral buffers will be    131072 words long.
 Raffenetti 2 integral format.
 Two-electron integral symmetry is turned on.
   221 basis functions,   448 primitive gaussians,   221 cartesian basis functions
    56 alpha electrons       56 beta electrons
       nuclear repulsion energy       927.8385777970 Hartrees.
 NAtoms=   22 NActive=   22 NUniq=   22 SFac= 1.00D+00 NAtFMM=   60 NAOKFM=F Big=F
 One-electron integrals computed using PRISM.
 NBasis=   221 RedAO= T  NBF=   221
 NBsUse=   221 1.00D-06 NBFU=   221
 Initial guess read from the read-write file.
 B after Tr=     0.000000    0.000000    0.000000
         Rot=    1.000000    0.000000    0.000000    0.000000 Ang=   0.00 deg.
 Initial guess orbital symmetries:
       Occupied  (A) (A) (A) (A) (A) (A) (A) (A) (A) (A) (A) (A)
                 (A) (A) (A) (A) (A) (A) (A) (A) (A) (A) (A) (A)
                 (A) (A) (A) (A) (A) (A) (A) (A) (A) (A) (A) (A)
                 (A) (A) (A) (A) (A) (A) (A) (A) (A) (A) (A) (A)
                 (A) (A) (A) (A) (A) (A) (A) (A)
       Virtual   (A) (A) (A) (A) (A) (A) (A) (A) (A) (A) (A) (A)
                 (A) (A) (A) (A) (A) (A) (A) (A) (A) (A) (A) (A)
                 (A) (A) (A) (A) (A) (A) (A) (A) (A) (A) (A) (A)
                 (A) (A) (A) (A) (A) (A) (A) (A) (A) (A) (A) (A)
                 (A) (A) (A) (A) (A) (A) (A) (A) (A) (A) (A) (A)
                 (A) (A) (A) (A) (A) (A) (A) (A) (A) (A) (A) (A)
                 (A) (A) (A) (A) (A) (A) (A) (A) (A) (A) (A) (A)
                 (A) (A) (A) (A) (A) (A) (A) (A) (A) (A) (A) (A)
                 (A) (A) (A) (A) (A) (A) (A) (A) (A) (A) (A) (A)
                 (A) (A) (A) (A) (A) (A) (A) (A) (A) (A) (A) (A)
                 (A) (A) (A) (A) (A) (A) (A) (A) (A) (A) (A) (A)
                 (A) (A) (A) (A) (A) (A) (A) (A) (A) (A) (A) (A)
                 (A) (A) (A) (A) (A) (A) (A) (A) (A) (A) (A) (A)
                 (A) (A) (A) (A) (A) (A) (A) (A) (A)
 Harris functional with IExCor=  402 diagonalized for initial guess.
 ExpMin= 1.43D-01 ExpMax= 2.52D+04 ExpMxC= 3.78D+03 IAcc=3 IRadAn=         5 AccDes= 0.00D+00
 HarFok:  IExCor=  402 AccDes= 0.00D+00 IRadAn=         5 IDoV= 1
 ScaDFX=  1.000000  1.000000  1.000000  1.000000
 FoFCou: FMM=F IPFlag=           0 FMFlag=      100000 FMFlg1=           0
         NFxFlg=           0 DoJE=T BraDBF=F KetDBF=T FulRan=T
         Omega=  0.000000  0.000000  1.000000  0.000000  0.000000 ICntrl=     500 IOpCl=  0
         NMat0=    1 NMatS0=    1 NMatT0=    0 NMatD0=    1 NMtDS0=    0 NMtDT0=    0
         I1Cent=           4 NGrid=           0.
 Petite list used in FoFCou.
 Requested convergence on RMS density matrix=1.00D-08 within 128 cycles.
 Requested convergence on MAX density matrix=1.00D-06.
 Requested convergence on             energy=1.00D-06.
 No special actions if energy rises.
 Integral accuracy reduced to 1.0D-05 until final iterations.
 Initial convergence to 1.0D-05 achieved.  Increase integral accuracy.
 SCF Done:  E(RB3LYP) =  -1398.76255861     A.U. after   13 cycles
             Convg  =    0.3764D-08             -V/T =  2.0053
 Calling FoFJK, ICntrl=      2127 FMM=F ISym2X=0 I1Cent= 0 IOpClX= 0 NMat=1 NMatS=1 NMatT=0.
 ***** Axes restored to original set *****
 -------------------------------------------------------------------
 Center     Atomic                   Forces (Hartrees/Bohr)
 Number     Number              X              Y              Z
 -------------------------------------------------------------------
      1        6           0.000896546   -0.000606213   -0.000549697
      2        6          -0.000803755    0.000564810    0.000902957
      3        6           0.000914450   -0.000824959   -0.001343055
      4        6          -0.000035648    0.000938127    0.001202434
      5        6          -0.005373793    0.003193932    0.001811933
      6        6           0.004776995   -0.002854804   -0.003370570
      7        6          -0.002062246   -0.002935229   -0.000779048
      8        6           0.000914054   -0.000816679   -0.000051704
      9        6          -0.002264798   -0.001480221    0.001463019
     10        7           0.002577287    0.002231070    0.000074598
     11        8           0.000157938    0.001582951    0.001836365
     12       17           0.002870370   -0.001784877   -0.000739679
     13       17          -0.002892136    0.002025660    0.000515113
     14        1           0.000256016   -0.000146339    0.000124480
     15        1          -0.000385628    0.000223787    0.000186387
     16        1           0.000135328   -0.000104860    0.000219469
     17        1          -0.000301036    0.000043978   -0.000108024
     18        1          -0.000599696   -0.000445794    0.000272179
     19        1          -0.000505218   -0.000066128   -0.000599629
     20        1           0.000473444    0.000244888    0.000027194
     21        1           0.000944315    0.001644388    0.000058020
     22        1           0.000307211   -0.000627488   -0.001152742
 -------------------------------------------------------------------
 Cartesian Forces:  Max     0.005373793 RMS     0.001594208

 GradGradGradGradGradGradGradGradGradGradGradGradGradGradGradGradGradGrad
 Berny optimization.
 Using GEDIIS/GDIIS optimizer.
 Internal  Forces:  Max     0.003669631 RMS     0.000883801
 Search for a local minimum.
 Step number   2 out of a maximum of  114
 All quantities printed in internal units (Hartrees-Bohrs-Radians)
 Mixed Optimization -- En-DIIS/RFO-DIIS
 Update second derivatives using D2CorX and points    1    2
 DE= -2.20D-03 DEPred=-2.26D-03 R= 9.72D-01
 SS=  1.41D+00  RLast= 1.65D-01 DXNew= 5.0454D-01 4.9424D-01
 Trust test= 9.72D-01 RLast= 1.65D-01 DXMaxT set to 4.94D-01
 ITU=  1  0
 Use linear search instead of GDIIS.
     Eigenvalues ---    0.00686   0.00711   0.01086   0.01240   0.01470
     Eigenvalues ---    0.01482   0.02021   0.02060   0.02067   0.02074
     Eigenvalues ---    0.02106   0.02121   0.02166   0.02169   0.02182
     Eigenvalues ---    0.05286   0.06553   0.07071   0.07469   0.10063
     Eigenvalues ---    0.13298   0.15471   0.16000   0.16000   0.16000
     Eigenvalues ---    0.16000   0.16000   0.16266   0.21367   0.21930
     Eigenvalues ---    0.22368   0.23487   0.23864   0.24951   0.24996
     Eigenvalues ---    0.24999   0.25000   0.27534   0.29644   0.31856
     Eigenvalues ---    0.33031   0.33283   0.34097   0.34193   0.34401
     Eigenvalues ---    0.34442   0.34513   0.34965   0.35087   0.35208
     Eigenvalues ---    0.39647   0.41467   0.42279   0.44747   0.45115
     Eigenvalues ---    0.45844   0.46327   0.46895   0.50849   0.91415
 RFO step:  Lambda=-3.99777944D-04 EMin= 6.86156996D-03
 Quartic linear search produced a step of  0.00471.
 Iteration  1 RMS(Cart)=  0.02929523 RMS(Int)=  0.00021656
 Iteration  2 RMS(Cart)=  0.00033138 RMS(Int)=  0.00001095
 Iteration  3 RMS(Cart)=  0.00000003 RMS(Int)=  0.00001095
 Variable       Old X    -DE/DX   Delta X   Delta X   Delta X     New X
                                 (Linear)    (Quad)   (Total)
    R1        2.63139  -0.00001  -0.00003  -0.00056  -0.00059   2.63080
    R2        2.63592  -0.00070   0.00003  -0.00100  -0.00097   2.63495
    R3        2.04989  -0.00003  -0.00002  -0.00050  -0.00052   2.04937
    R4        2.64034  -0.00139  -0.00002  -0.00332  -0.00333   2.63700
    R5        2.04947   0.00016  -0.00003  -0.00010  -0.00013   2.04934
    R6        2.64709   0.00002  -0.00007  -0.00109  -0.00115   2.64594
    R7        2.63524  -0.00115  -0.00001  -0.00266  -0.00267   2.63257
    R8        2.05048   0.00028  -0.00004   0.00017   0.00014   2.05062
    R9        2.65215   0.00102  -0.00001   0.00218   0.00217   2.65432
   R10        2.85297   0.00104   0.00004   0.00392   0.00395   2.85693
   R11        3.29902   0.00346   0.00022   0.01418   0.01440   3.31343
   R12        3.30374   0.00356   0.00018   0.01402   0.01420   3.31795
   R13        2.87962  -0.00146   0.00018  -0.00155  -0.00137   2.87824
   R14        2.58454   0.00037  -0.00003   0.00019   0.00015   2.58470
   R15        2.31471   0.00006  -0.00004  -0.00062  -0.00066   2.31406
   R16        2.07097   0.00025   0.00002   0.00115   0.00117   2.07215
   R17        2.06192   0.00024  -0.00002   0.00033   0.00031   2.06223
   R18        2.07123  -0.00025   0.00002  -0.00037  -0.00035   2.07088
   R19        2.75997  -0.00092   0.00013  -0.00011   0.00002   2.76000
   R20        2.06999  -0.00047   0.00000  -0.00144  -0.00144   2.06855
   R21        2.07518  -0.00091   0.00001  -0.00255  -0.00254   2.07264
   R22        1.90712   0.00046  -0.00006  -0.00007  -0.00013   1.90699
    A1        2.08297  -0.00080  -0.00002  -0.00408  -0.00411   2.07886
    A2        2.09733   0.00073   0.00004   0.00459   0.00463   2.10196
    A3        2.10288   0.00008  -0.00002  -0.00050  -0.00052   2.10236
    A4        2.10004  -0.00055   0.00000  -0.00227  -0.00227   2.09777
    A5        2.09184   0.00074   0.00005   0.00493   0.00498   2.09682
    A6        2.09131  -0.00019  -0.00005  -0.00267  -0.00272   2.08859
    A7        2.11346  -0.00041   0.00003  -0.00120  -0.00116   2.11229
    A8        2.08062   0.00018  -0.00005  -0.00011  -0.00016   2.08045
    A9        2.08909   0.00023   0.00002   0.00130   0.00132   2.09041
   A10        2.06055  -0.00135  -0.00003  -0.00566  -0.00570   2.05485
   A11        2.08241   0.00020   0.00004   0.00143   0.00146   2.08388
   A12        2.14008   0.00115  -0.00001   0.00434   0.00432   2.14440
   A13        2.09914   0.00163  -0.00001   0.00635   0.00635   2.10549
   A14        2.09364  -0.00083   0.00001  -0.00311  -0.00310   2.09053
   A15        2.09040  -0.00080   0.00000  -0.00323  -0.00324   2.08716
   A16        2.11017   0.00149   0.00003   0.00688   0.00691   2.11708
   A17        2.06527  -0.00103   0.00006  -0.00323  -0.00317   2.06209
   A18        2.10775  -0.00046  -0.00009  -0.00364  -0.00373   2.10402
   A19        2.01679  -0.00171   0.00013  -0.00459  -0.00447   2.01232
   A20        2.15444  -0.00196   0.00007  -0.00665  -0.00658   2.14786
   A21        2.11163   0.00367  -0.00020   0.01138   0.01118   2.12281
   A22        1.91763  -0.00024   0.00005  -0.00172  -0.00168   1.91595
   A23        1.90038  -0.00072  -0.00005  -0.00479  -0.00484   1.89554
   A24        1.96660  -0.00021   0.00015   0.00188   0.00204   1.96864
   A25        1.88917   0.00024  -0.00010  -0.00151  -0.00162   1.88754
   A26        1.88792   0.00009  -0.00010  -0.00210  -0.00220   1.88572
   A27        1.90061   0.00088   0.00003   0.00824   0.00827   1.90888
   A28        1.93798  -0.00028  -0.00004  -0.00349  -0.00354   1.93445
   A29        1.93514   0.00022  -0.00007   0.00281   0.00273   1.93787
   A30        1.91469   0.00056  -0.00007   0.00143   0.00133   1.91602
   A31        1.89645   0.00003  -0.00006  -0.00071  -0.00077   1.89568
   A32        1.92449  -0.00099   0.00021  -0.00786  -0.00766   1.91683
   A33        1.85326   0.00046   0.00004   0.00822   0.00825   1.86150
   A34        2.11547  -0.00174  -0.00006  -0.00892  -0.00899   2.10647
   A35        2.09007   0.00207   0.00005   0.01229   0.01232   2.10240
   A36        2.07764  -0.00033   0.00001  -0.00339  -0.00339   2.07425
    D1        0.00104  -0.00002   0.00002  -0.00033  -0.00030   0.00074
    D2       -3.13979  -0.00001   0.00005   0.00066   0.00071  -3.13908
    D3        3.13950   0.00001  -0.00002   0.00033   0.00032   3.13982
    D4       -0.00133   0.00002   0.00001   0.00132   0.00133   0.00000
    D5        0.00340  -0.00002   0.00000  -0.00099  -0.00099   0.00241
    D6        3.14023   0.00007  -0.00004   0.00214   0.00211  -3.14085
    D7       -3.13505  -0.00005   0.00004  -0.00167  -0.00163  -3.13668
    D8        0.00178   0.00003   0.00000   0.00147   0.00147   0.00325
    D9       -0.00821   0.00004  -0.00001   0.00209   0.00209  -0.00612
   D10        3.13641  -0.00003   0.00005  -0.00038  -0.00033   3.13608
   D11        3.13262   0.00003  -0.00003   0.00111   0.00108   3.13371
   D12       -0.00594  -0.00004   0.00002  -0.00136  -0.00134  -0.00728
   D13       -0.00616   0.00000   0.00005   0.00121   0.00125  -0.00491
   D14       -3.13013  -0.00009  -0.00002  -0.00518  -0.00519  -3.13532
   D15       -3.14097   0.00001   0.00009   0.00233   0.00240  -3.13857
   D16        0.01825  -0.00008   0.00001  -0.00407  -0.00405   0.01421
   D17       -0.00077   0.00003  -0.00003   0.00055   0.00052  -0.00025
   D18       -3.13761  -0.00005   0.00000  -0.00258  -0.00257  -3.14018
   D19        3.13401   0.00002  -0.00007  -0.00057  -0.00064   3.13337
   D20       -0.00283  -0.00007  -0.00004  -0.00370  -0.00373  -0.00657
   D21        0.01062  -0.00003  -0.00003  -0.00250  -0.00253   0.00809
   D22       -3.13407   0.00004  -0.00009   0.00003  -0.00005  -3.13412
   D23        3.13396   0.00005   0.00004   0.00408   0.00412   3.13808
   D24       -0.01073   0.00012  -0.00001   0.00662   0.00660  -0.00412
   D25        1.68382  -0.00008   0.00025   0.03425   0.03451   1.71833
   D26       -2.48926  -0.00007   0.00010   0.03290   0.03299  -2.45627
   D27       -0.44786   0.00097   0.00005   0.04551   0.04558  -0.40227
   D28       -1.43931  -0.00015   0.00018   0.02766   0.02783  -1.41148
   D29        0.67080  -0.00014   0.00002   0.02630   0.02631   0.69710
   D30        2.71220   0.00090  -0.00002   0.03892   0.03890   2.75110
   D31        1.49235   0.00018   0.00006   0.01755   0.01759   1.50994
   D32       -2.72461  -0.00009  -0.00006   0.01186   0.01179  -2.71282
   D33       -0.61409   0.00038   0.00005   0.02017   0.02021  -0.59388
   D34       -1.62200   0.00007   0.00007   0.01129   0.01137  -1.61064
   D35        0.44422  -0.00021  -0.00005   0.00560   0.00557   0.44979
   D36        2.55474   0.00026   0.00006   0.01391   0.01398   2.56873
   D37       -3.10055   0.00019   0.00015   0.00999   0.01014  -3.09040
   D38        0.03887   0.00005   0.00007  -0.00004  -0.00002   0.03885
   D39        0.01453   0.00021   0.00014   0.01578   0.01597   0.03050
   D40       -3.12923   0.00007   0.00006   0.00575   0.00580  -3.12343
   D41        3.04037  -0.00006  -0.00010  -0.01096  -0.01105   3.02933
   D42       -0.09906   0.00007  -0.00002  -0.00102  -0.00106  -0.10013
   D43        0.90762  -0.00019   0.00006  -0.01175  -0.01168   0.89594
   D44       -2.23182  -0.00006   0.00014  -0.00181  -0.00169  -2.23351
   D45       -1.11685  -0.00022  -0.00007  -0.01685  -0.01689  -1.13374
   D46        2.02690  -0.00009   0.00001  -0.00691  -0.00690   2.02000
         Item               Value     Threshold  Converged?
 Maximum Force            0.003670     0.000450     NO 
 RMS     Force            0.000884     0.000300     NO 
 Maximum Displacement     0.098276     0.001800     NO 
 RMS     Displacement     0.029390     0.001200     NO 
 Predicted change in Energy=-2.020147D-04
 GradGradGradGradGradGradGradGradGradGradGradGradGradGradGradGradGradGrad

                          Input orientation:                          
 ---------------------------------------------------------------------
 Center     Atomic      Atomic             Coordinates (Angstroms)
 Number     Number       Type             X           Y           Z
 ---------------------------------------------------------------------
      1          6           0        2.423528   -1.273755   -0.102032
      2          6           0        1.301954   -0.514185    0.219265
      3          6           0        2.743755   -1.752689    2.250141
      4          6           0        1.616949   -0.994793    2.591289
      5          6           0        3.141502   -1.890085    0.922118
      6          6           0        0.906850   -0.374338    1.550276
      7          6           0        1.351470    0.783272    5.865617
      8          6           0        1.866310    2.150286    6.296951
      9          6           0        1.223184   -0.863599    4.045022
     10          7           0        1.705834    0.397243    4.602217
     11          8           0        0.649833    0.077911    6.579537
     12         17           0        4.557533   -2.849898    0.537415
     13         17           0       -0.510683    0.602573    1.895266
     14          1           0        2.733116   -1.386389   -1.135263
     15          1           0        0.729909   -0.029457   -0.564231
     16          1           0        3.308393   -2.244734    3.035381
     17          1           0        1.166337    2.929576    5.972717
     18          1           0        1.920459    2.174013    7.386631
     19          1           0        2.851948    2.384042    5.878874
     20          1           0        0.135642   -0.904002    4.162635
     21          1           0        1.632796   -1.704462    4.617845
     22          1           0        2.297782    0.985395    4.034738
 ---------------------------------------------------------------------
                    Distance matrix (angstroms):
                    1          2          3          4          5
     1  C    0.000000
     2  C    1.392159   0.000000
     3  C    2.421702   2.781572   0.000000
     4  C    2.825308   2.440636   1.400172   0.000000
     5  C    1.394358   2.402299   1.393098   2.431448   0.000000
     6  C    2.416481   1.395440   2.400809   1.404604   2.772317
     7  C    6.402617   5.793716   4.630467   3.735401   5.898240
     8  C    7.278840   6.660043   5.690324   4.866788   6.843941
     9  C    4.336716   3.842487   2.514799   1.511821   3.806066
    10  N    5.043538   4.494896   3.351380   2.447345   4.564661
    11  O    7.043888   6.420974   5.145802   4.241713   6.487512
    12  Cl   2.728937   4.019399   2.725268   4.038174   1.753391
    13  Cl   4.014897   2.709572   4.032935   2.750062   4.527562
    14  H    1.084481   2.154928   3.405180   3.909778   2.157153
    15  H    2.151801   1.084464   3.865979   3.417019   3.389240
    16  H    3.401345   3.866666   1.085139   2.149548   2.149304
    17  H    7.493403   6.706720   6.186228   5.199786   7.255270
    18  H    8.259555   7.679850   6.517694   5.755759   7.732901
    19  H    7.023834   6.544721   5.503813   4.873393   6.551444
    20  H    4.853712   4.130667   3.343674   2.161398   4.528631
    21  H    4.804998   4.568777   2.615833   2.147281   3.996129
    22  H    4.715128   4.218798   3.298604   2.543271   4.320723
                    6          7          8          9         10
     6  C    0.000000
     7  C    4.489980   0.000000
     8  C    5.461246   1.523100   0.000000
     9  C    2.561874   2.458294   3.816844   0.000000
    10  N    3.247777   1.367762   2.443570   1.460527   0.000000
    11  O    5.056091   1.224545   2.419589   2.763863   2.264268
    12  Cl   4.525679   7.201980   8.088064   5.231307   5.932851
    13  Cl   1.755783   4.389073   5.236444   3.126884   3.504668
    14  H    3.401708   7.458465   8.276305   5.421121   6.095517
    15  H    2.149742   6.510746   7.288244   4.710024   5.275101
    16  H    3.386935   4.583515   5.659827   2.697222   3.464565
    17  H    5.526406   2.156934   1.096532   4.255281   2.929511
    18  H    6.448608   2.138081   1.091283   4.569424   3.309976
    19  H    5.488973   2.194100   1.095861   4.069774   2.625033
    20  H    2.774838   2.687989   4.108430   1.094629   2.086139
    21  H    3.421434   2.797303   4.211057   1.096795   2.103032
    22  H    3.155332   2.070864   2.580841   2.138609   1.009137
                   11         12         13         14         15
    11  O    0.000000
    12  Cl   7.768489   0.000000
    13  Cl   4.854324   6.280934   0.000000
    14  H    8.124186   2.875449   4.864392   0.000000
    15  H    7.145024   4.880493   2.826244   2.485997   0.000000
    16  H    5.002366   2.857693   4.898200   4.296740   4.951084
    17  H    2.960912   8.628153   4.985273   8.462017   7.188743
    18  H    2.580608   8.894133   6.207654   9.271438   8.336000
    19  H    3.264733   7.670354   5.509089   7.964194   7.200113
    20  H    2.658940   6.040021   2.797940   5.920076   4.843681
    21  H    2.826889   5.149371   4.162854   5.866015   5.520395
    22  H    3.164691   5.661026   3.551250   5.704717   4.963735
                   16         17         18         19         20
    16  H    0.000000
    17  H    6.323751   0.000000
    18  H    6.354925   1.771646   0.000000
    19  H    5.451547   1.774175   1.784689   0.000000
    20  H    3.624171   4.362918   4.801448   4.597285   0.000000
    21  H    2.367217   4.850522   4.774044   4.448864   1.757675
    22  H    3.528992   2.969135   3.576363   2.379947   2.874201
                   21         22
    21  H    0.000000
    22  H    2.831529   0.000000
 Stoichiometry    C9H9Cl2NO
 Framework group  C1[X(C9H9Cl2NO)]
 Deg. of freedom    60
 Full point group                 C1      NOp   1
 Largest Abelian subgroup         C1      NOp   1
 Largest concise Abelian subgroup C1      NOp   1
                         Standard orientation:                         
 ---------------------------------------------------------------------
 Center     Atomic      Atomic             Coordinates (Angstroms)
 Number     Number       Type             X           Y           Z
 ---------------------------------------------------------------------
      1          6           0        2.798194    0.845017    0.416346
      2          6           0        1.759312    1.770480    0.367870
      3          6           0        1.281011   -0.864565   -0.383731
      4          6           0        0.225222    0.053306   -0.441193
      5          6           0        2.549633   -0.474168    0.039250
      6          6           0        0.488131    1.377194   -0.052461
      7          6           0       -3.326053   -0.988876    0.064301
      8          6           0       -4.131990   -1.178843    1.342665
      9          6           0       -1.138703   -0.412120   -0.898019
     10          7           0       -2.005606   -0.681994    0.246003
     11          8           0       -3.816434   -1.078689   -1.054168
     12         17           0        3.845034   -1.654527    0.094633
     13         17           0       -0.784520    2.586357   -0.084943
     14          1           0        3.788013    1.146792    0.740828
     15          1           0        1.934604    2.801396    0.655178
     16          1           0        1.105078   -1.893165   -0.681318
     17          1           0       -4.510391   -0.210086    1.690090
     18          1           0       -4.987945   -1.819058    1.122746
     19          1           0       -3.543872   -1.623988    2.153143
     20          1           0       -1.619261    0.340965   -1.530587
     21          1           0       -1.036599   -1.317186   -1.509075
     22          1           0       -1.616202   -0.627861    1.175407
 ---------------------------------------------------------------------
 Rotational constants (GHZ):      0.9019661      0.3214336      0.2547775
 Standard basis: 6-31G(d) (6D, 7F)
 There are   221 symmetry adapted basis functions of A   symmetry.
 Integral buffers will be    131072 words long.
 Raffenetti 2 integral format.
 Two-electron integral symmetry is turned on.
   221 basis functions,   448 primitive gaussians,   221 cartesian basis functions
    56 alpha electrons       56 beta electrons
       nuclear repulsion energy       927.6708193944 Hartrees.
 NAtoms=   22 NActive=   22 NUniq=   22 SFac= 1.00D+00 NAtFMM=   60 NAOKFM=F Big=F
 One-electron integrals computed using PRISM.
 NBasis=   221 RedAO= T  NBF=   221
 NBsUse=   221 1.00D-06 NBFU=   221
 Initial guess read from the read-write file.
 B after Tr=     0.000000    0.000000    0.000000
         Rot=    1.000000    0.000000    0.000000    0.000000 Ang=   0.00 deg.
 Initial guess orbital symmetries:
       Occupied  (A) (A) (A) (A) (A) (A) (A) (A) (A) (A) (A) (A)
                 (A) (A) (A) (A) (A) (A) (A) (A) (A) (A) (A) (A)
                 (A) (A) (A) (A) (A) (A) (A) (A) (A) (A) (A) (A)
                 (A) (A) (A) (A) (A) (A) (A) (A) (A) (A) (A) (A)
                 (A) (A) (A) (A) (A) (A) (A) (A)
       Virtual   (A) (A) (A) (A) (A) (A) (A) (A) (A) (A) (A) (A)
                 (A) (A) (A) (A) (A) (A) (A) (A) (A) (A) (A) (A)
                 (A) (A) (A) (A) (A) (A) (A) (A) (A) (A) (A) (A)
                 (A) (A) (A) (A) (A) (A) (A) (A) (A) (A) (A) (A)
                 (A) (A) (A) (A) (A) (A) (A) (A) (A) (A) (A) (A)
                 (A) (A) (A) (A) (A) (A) (A) (A) (A) (A) (A) (A)
                 (A) (A) (A) (A) (A) (A) (A) (A) (A) (A) (A) (A)
                 (A) (A) (A) (A) (A) (A) (A) (A) (A) (A) (A) (A)
                 (A) (A) (A) (A) (A) (A) (A) (A) (A) (A) (A) (A)
                 (A) (A) (A) (A) (A) (A) (A) (A) (A) (A) (A) (A)
                 (A) (A) (A) (A) (A) (A) (A) (A) (A) (A) (A) (A)
                 (A) (A) (A) (A) (A) (A) (A) (A) (A) (A) (A) (A)
                 (A) (A) (A) (A) (A) (A) (A) (A) (A) (A) (A) (A)
                 (A) (A) (A) (A) (A) (A) (A) (A) (A)
 Harris functional with IExCor=  402 diagonalized for initial guess.
 ExpMin= 1.43D-01 ExpMax= 2.52D+04 ExpMxC= 3.78D+03 IAcc=3 IRadAn=         5 AccDes= 0.00D+00
 HarFok:  IExCor=  402 AccDes= 0.00D+00 IRadAn=         5 IDoV= 1
 ScaDFX=  1.000000  1.000000  1.000000  1.000000
 FoFCou: FMM=F IPFlag=           0 FMFlag=      100000 FMFlg1=           0
         NFxFlg=           0 DoJE=T BraDBF=F KetDBF=T FulRan=T
         Omega=  0.000000  0.000000  1.000000  0.000000  0.000000 ICntrl=     500 IOpCl=  0
         NMat0=    1 NMatS0=    1 NMatT0=    0 NMatD0=    1 NMtDS0=    0 NMtDT0=    0
         I1Cent=           4 NGrid=           0.
 Petite list used in FoFCou.
 Requested convergence on RMS density matrix=1.00D-08 within 128 cycles.
 Requested convergence on MAX density matrix=1.00D-06.
 Requested convergence on             energy=1.00D-06.
 No special actions if energy rises.
 Integral accuracy reduced to 1.0D-05 until final iterations.
 Initial convergence to 1.0D-05 achieved.  Increase integral accuracy.
 SCF Done:  E(RB3LYP) =  -1398.76280018     A.U. after   12 cycles
             Convg  =    0.4733D-08             -V/T =  2.0053
 Calling FoFJK, ICntrl=      2127 FMM=F ISym2X=0 I1Cent= 0 IOpClX= 0 NMat=1 NMatS=1 NMatT=0.
 ***** Axes restored to original set *****
 -------------------------------------------------------------------
 Center     Atomic                   Forces (Hartrees/Bohr)
 Number     Number              X              Y              Z
 -------------------------------------------------------------------
      1        6           0.001204355   -0.000909008   -0.000076929
      2        6          -0.000953497    0.000646876    0.000497495
      3        6           0.000795424   -0.000958565   -0.000278831
      4        6          -0.001234297    0.000529921    0.000533017
      5        6          -0.001696366    0.001241179    0.000130963
      6        6           0.001808924   -0.000868963   -0.000380043
      7        6           0.000640258    0.000184042   -0.000172602
      8        6           0.000002097   -0.000098014   -0.000006111
      9        6          -0.000265466   -0.000146181   -0.000513492
     10        7           0.000070325   -0.000022242    0.000747310
     11        8          -0.000365455    0.000313175   -0.000153695
     12       17           0.000409136   -0.000284940   -0.000131174
     13       17          -0.000665145    0.000375458    0.000138603
     14        1           0.000086136   -0.000041427   -0.000044361
     15        1          -0.000118524    0.000104894   -0.000080321
     16        1           0.000223517   -0.000081862    0.000038897
     17        1          -0.000148813   -0.000184782    0.000025126
     18        1           0.000093924   -0.000015053    0.000114084
     19        1          -0.000262101   -0.000151064   -0.000080842
     20        1           0.000007011   -0.000172289   -0.000023740
     21        1           0.000307633    0.000341248   -0.000127581
     22        1           0.000060924    0.000197597   -0.000155774
 -------------------------------------------------------------------
 Cartesian Forces:  Max     0.001808924 RMS     0.000540922

 GradGradGradGradGradGradGradGradGradGradGradGradGradGradGradGradGradGrad
 Berny optimization.
 Using GEDIIS/GDIIS optimizer.
 Internal  Forces:  Max     0.000784394 RMS     0.000260826
 Search for a local minimum.
 Step number   3 out of a maximum of  114
 All quantities printed in internal units (Hartrees-Bohrs-Radians)
 Mixed Optimization -- En-DIIS/RFO-DIIS
 Swaping is turned off.
 Update second derivatives using D2CorX and points    1    2    3
 DE= -2.42D-04 DEPred=-2.02D-04 R= 1.20D+00
 SS=  1.41D+00  RLast= 1.05D-01 DXNew= 8.3121D-01 3.1623D-01
 Trust test= 1.20D+00 RLast= 1.05D-01 DXMaxT set to 4.94D-01
 ITU=  1  1  0
     Eigenvalues ---    0.00553   0.00710   0.01069   0.01271   0.01465
     Eigenvalues ---    0.01477   0.02021   0.02062   0.02073   0.02105
     Eigenvalues ---    0.02118   0.02122   0.02166   0.02170   0.02183
     Eigenvalues ---    0.05321   0.06577   0.07039   0.07529   0.10045
     Eigenvalues ---    0.13272   0.15554   0.16000   0.16000   0.16000
     Eigenvalues ---    0.16000   0.16166   0.16220   0.19938   0.22101
     Eigenvalues ---    0.22382   0.22680   0.23836   0.24970   0.24999
     Eigenvalues ---    0.25000   0.25068   0.28438   0.29747   0.32104
     Eigenvalues ---    0.32980   0.33221   0.34071   0.34207   0.34406
     Eigenvalues ---    0.34442   0.34480   0.34956   0.35073   0.35157
     Eigenvalues ---    0.39916   0.41448   0.42322   0.45088   0.45492
     Eigenvalues ---    0.45876   0.45997   0.47314   0.50954   0.91420
 En-DIIS/RFO-DIIS IScMMF=        0 using points:     3    2
 RFO step:  Lambda=-1.90549731D-05.
 DidBck=F Rises=F RFO-DIIS coefs:    1.25977   -0.25977
 Iteration  1 RMS(Cart)=  0.03039037 RMS(Int)=  0.00019247
 Iteration  2 RMS(Cart)=  0.00033441 RMS(Int)=  0.00001076
 Iteration  3 RMS(Cart)=  0.00000003 RMS(Int)=  0.00001076
 Variable       Old X    -DE/DX   Delta X   Delta X   Delta X     New X
                                  (DIIS)     (GDIIS)  (Total)
    R1        2.63080   0.00071  -0.00015   0.00176   0.00160   2.63240
    R2        2.63495  -0.00068  -0.00025  -0.00153  -0.00179   2.63317
    R3        2.04937   0.00007  -0.00013   0.00012  -0.00001   2.04936
    R4        2.63700  -0.00039  -0.00087  -0.00101  -0.00188   2.63512
    R5        2.04934   0.00017  -0.00003   0.00038   0.00035   2.04969
    R6        2.64594   0.00076  -0.00030   0.00178   0.00149   2.64743
    R7        2.63257  -0.00027  -0.00069  -0.00061  -0.00130   2.63128
    R8        2.05062   0.00018   0.00004   0.00040   0.00043   2.05105
    R9        2.65432  -0.00037   0.00056  -0.00123  -0.00067   2.65365
   R10        2.85693  -0.00035   0.00103  -0.00137  -0.00034   2.85658
   R11        3.31343   0.00052   0.00374   0.00259   0.00634   3.31977
   R12        3.31795   0.00077   0.00369   0.00335   0.00704   3.32499
   R13        2.87824  -0.00050  -0.00036  -0.00065  -0.00100   2.87724
   R14        2.58470  -0.00023   0.00004  -0.00080  -0.00076   2.58393
   R15        2.31406  -0.00006  -0.00017  -0.00032  -0.00049   2.31357
   R16        2.07215  -0.00004   0.00030  -0.00006   0.00024   2.07239
   R17        2.06223   0.00012   0.00008   0.00027   0.00035   2.06258
   R18        2.07088  -0.00024  -0.00009  -0.00070  -0.00080   2.07008
   R19        2.76000   0.00034   0.00001   0.00203   0.00204   2.76204
   R20        2.06855   0.00000  -0.00038   0.00006  -0.00032   2.06823
   R21        2.07264  -0.00021  -0.00066  -0.00057  -0.00123   2.07141
   R22        1.90699   0.00024  -0.00003   0.00024   0.00020   1.90720
    A1        2.07886  -0.00035  -0.00107  -0.00181  -0.00287   2.07599
    A2        2.10196   0.00025   0.00120   0.00157   0.00277   2.10473
    A3        2.10236   0.00010  -0.00013   0.00023   0.00010   2.10246
    A4        2.09777  -0.00031  -0.00059  -0.00154  -0.00213   2.09564
    A5        2.09682   0.00022   0.00129   0.00135   0.00265   2.09947
    A6        2.08859   0.00010  -0.00071   0.00019  -0.00052   2.08808
    A7        2.11229  -0.00045  -0.00030  -0.00210  -0.00240   2.10989
    A8        2.08045   0.00037  -0.00004   0.00205   0.00200   2.08246
    A9        2.09041   0.00008   0.00034   0.00007   0.00041   2.09082
   A10        2.05485  -0.00033  -0.00148  -0.00140  -0.00288   2.05197
   A11        2.08388   0.00038   0.00038   0.00205   0.00243   2.08631
   A12        2.14440  -0.00005   0.00112  -0.00065   0.00047   2.14487
   A13        2.10549   0.00078   0.00165   0.00364   0.00529   2.11077
   A14        2.09053  -0.00042  -0.00081  -0.00192  -0.00273   2.08781
   A15        2.08716  -0.00036  -0.00084  -0.00172  -0.00256   2.08460
   A16        2.11708   0.00065   0.00180   0.00321   0.00501   2.12208
   A17        2.06209  -0.00034  -0.00082  -0.00115  -0.00197   2.06012
   A18        2.10402  -0.00031  -0.00097  -0.00207  -0.00304   2.10098
   A19        2.01232   0.00016  -0.00116   0.00190   0.00068   2.01301
   A20        2.14786  -0.00019  -0.00171  -0.00020  -0.00196   2.14590
   A21        2.12281   0.00002   0.00290  -0.00208   0.00077   2.12357
   A22        1.91595  -0.00028  -0.00044  -0.00194  -0.00238   1.91357
   A23        1.89554   0.00012  -0.00126   0.00118  -0.00008   1.89546
   A24        1.96864  -0.00020   0.00053  -0.00072  -0.00020   1.96844
   A25        1.88754   0.00009  -0.00042   0.00019  -0.00024   1.88731
   A26        1.88572   0.00019  -0.00057   0.00051  -0.00006   1.88566
   A27        1.90888   0.00009   0.00215   0.00082   0.00297   1.91184
   A28        1.93445   0.00044  -0.00092   0.00235   0.00143   1.93588
   A29        1.93787  -0.00020   0.00071  -0.00161  -0.00091   1.93696
   A30        1.91602  -0.00011   0.00035  -0.00164  -0.00130   1.91472
[...]
 0056030,0.00005555,-0.00006980,-0.00004770,0.00054193,-0.00011640,0.00
 070747,0.00020532,-0.00020293,-0.00074740,0.00019684,-0.00008218,-0.00
 031837,-0.09683085,0.08793802,-0.00929470,0.00725514,0.00734551,0.0002
 4984,0.00071200,-0.00231742,0.02901838,-0.02251888,-0.00963333,-0.0024
 5591,0.00298093,-0.00376130,0.02941379,-0.02065831,-0.05152870,0.00010
 979,-0.00042576,0.00151874,-0.00040363,0.00028810,0.00040651,0.0000441
 3,-0.00005620,-0.00003897,0.00101981,-0.00044060,0.00060251,0.00024563
 ,-0.00025755,-0.00056461,0.00018614,-0.00010265,-0.00023265,-0.0479111
 2,0.03422278,0.05602181,0.00439072,0.00009429,0.00208370,-0.01766012,0
 .01628638,0.00997179,0.00189363,0.00252798,-0.00359008,-0.02236619,0.0
 1940602,0.00857437,0.00003512,-0.00033290,-0.00088176,-0.10053279,0.05
 960771,0.02782774,-0.00275042,0.00038776,0.00068352,0.00010595,-0.0000
 5074,-0.00002072,-0.00109727,0.00006229,0.00330126,0.00047687,-0.00123
 049,-0.00280124,0.00147026,-0.00003017,0.00014069,-0.00143519,0.000703
 72,0.00055632,0.13894256,0.00075173,0.00430078,-0.00063709,0.01359087,
 -0.00676097,-0.00632843,0.00203565,0.00215083,0.00394053,0.02246647,-0
 .01379495,-0.00680212,-0.00047424,-0.00012183,0.00032277,0.05902118,-0
 .06832595,-0.01919556,0.00123665,-0.00030887,-0.00024622,-0.00002584,0
 .00008743,0.00001263,-0.00038435,-0.00328400,-0.00232553,-0.00114476,0
 .00152192,-0.00014055,-0.00087501,0.00018336,0.00005464,0.00066218,-0.
 00102773,-0.00051685,-0.09692774,0.08736820,-0.00198079,0.00271926,-0.
 00374222,0.02968988,-0.02246964,-0.00988886,0.00002468,0.00105319,-0.0
 0286050,-0.00800947,0.00600153,0.00690149,0.00027399,-0.00043176,0.001
 36696,0.02855421,-0.01973056,-0.05076109,-0.00039464,0.00037591,0.0002
 9411,-0.00000208,0.00004176,-0.00000969,-0.00189981,0.00148152,-0.0018
 7330,-0.00100326,0.00130140,-0.00136084,-0.00013404,-0.00001505,-0.000
 07714,0.00051282,-0.00049561,-0.00002304,-0.04512910,0.03128675,0.0607
 8252,-0.06078793,0.01416976,0.06072084,-0.00122816,0.00023587,0.023578
 32,0.00021980,0.00450583,-0.00171888,-0.00103077,0.00019257,-0.0001619
 5,0.00610975,-0.00087856,-0.01748899,0.00047367,0.00542427,0.00072391,
 -0.00005940,-0.00002142,-0.00001059,0.00000473,0.00000013,-0.00000573,
 -0.00018052,-0.00023608,-0.00005699,0.00008768,-0.00007951,-0.00000113
 ,0.00003280,-0.00000495,0.00001895,-0.00028139,-0.00182925,-0.00067560
 ,-0.00062345,0.00048047,0.00093853,0.05771937,0.01435369,-0.04488581,-
 0.01278025,0.00318088,0.00231239,-0.01871975,0.00466551,0.00118469,0.0
 0206267,0.00016595,-0.00094086,0.00001943,-0.00389676,0.00349655,0.017
 08172,0.00538306,0.00266135,0.00021316,0.00006563,-0.00001707,-0.00002
 068,0.00000568,-0.00000320,-0.00000284,-0.00036618,-0.00028724,-0.0001
 1262,0.00001291,0.00001520,-0.00000471,-0.00005582,-0.00000388,0.00000
 324,-0.00190674,-0.00099108,0.00006833,0.00055098,-0.00025647,-0.00077
 345,-0.01953565,0.03920173,0.05863686,-0.01095485,-0.33425547,0.000556
 18,0.00045973,-0.00481036,-0.00252497,0.00286225,-0.00054909,-0.000313
 80,0.00006765,0.00057654,0.00669128,-0.00323282,-0.01621390,0.00113373
 ,-0.00022963,0.00158599,-0.00002557,0.00004044,0.00006489,0.00000477,-
 0.00000782,-0.00000876,-0.00001687,0.00003122,-0.00003268,0.00003142,-
 0.00005074,-0.00003564,0.00000746,-0.00001375,-0.00003341,0.00007504,-
 0.00054289,0.00123426,0.00011582,-0.00006291,-0.00021925,-0.06444731,0
 .01219549,0.35263789,-0.00876105,0.01158879,-0.01587471,-0.13502308,0.
 09490942,-0.10225974,-0.00038441,-0.00014852,0.00078250,0.00220814,0.0
 0238129,0.00182169,0.00087214,0.00464186,0.00249833,0.00565493,-0.0032
 9081,0.00603048,-0.00000293,0.00005567,0.00000830,0.00000789,-0.000008
 50,0.00000462,0.00046576,-0.00010654,0.00029658,-0.00004886,-0.0001126
 2,-0.00009224,-0.00001825,-0.00001131,-0.00001042,-0.00076050,0.000797
 06,-0.00031491,-0.00033533,-0.00190966,0.00063727,-0.00099628,-0.00252
 725,-0.00023850,0.13736096,0.00900773,-0.00599923,0.01209509,0.0943890
 7,-0.12537636,0.10202369,-0.00019231,-0.00022023,-0.00051228,0.0024711
 3,0.00342717,-0.00019068,0.00467502,0.00320942,-0.00139034,-0.00035842
 ,0.00313675,-0.00277083,0.00005459,0.00002992,-0.00000780,-0.00000217,
 0.00000039,0.00000098,-0.00001840,0.00041630,-0.00020739,-0.00001462,-
 0.00005954,0.00006394,-0.00003121,-0.00001670,-0.00000285,0.00067365,-
 0.00046372,0.00025907,-0.00184645,-0.00100307,-0.00095078,-0.00249843,
 -0.00198203,-0.00040755,-0.10591237,0.12527502,0.00717810,-0.00693238,
 0.01111262,-0.09999331,0.10006006,-0.17868657,0.00080564,-0.00066969,-
 0.00029537,0.00287039,-0.00126562,-0.00476207,0.00204297,-0.00090715,0
 .00020398,-0.01824139,0.01724677,-0.01611625,-0.00029996,0.00012425,0.
 00013824,0.00001979,-0.00002057,-0.00000931,-0.00101380,0.00128991,0.0
 0001527,0.00015171,-0.00025952,-0.00008820,0.00016800,-0.00003817,-0.0
 0005142,0.00065659,-0.00055528,0.00015597,-0.00058102,0.00001573,0.000
 91148,-0.00052201,-0.00014406,0.00073192,0.10679880,-0.10791061,0.1872
 2640,0.00215434,0.00218712,0.00198113,-0.00043024,-0.00014726,0.000634
 32,-0.13081845,0.09378847,-0.09917727,-0.00908605,0.01258708,-0.014766
 84,0.00562750,-0.00341504,0.00595671,0.00068344,0.00436297,0.00260981,
 -0.00047721,0.00006445,0.00023603,0.00004257,-0.00002483,-0.00005163,-
 0.00167944,-0.00117787,-0.00212167,0.00048596,-0.00085653,-0.00052398,
 0.00019722,0.00002312,-0.00003412,-0.00030138,-0.00193617,0.00030931,-
 0.00081357,0.00085977,-0.00038458,0.00053413,-0.00009588,0.00030472,-0
 .00019806,-0.00028652,-0.00010457,0.13374692,0.00197956,0.00336940,-0.
 00040062,-0.00012730,-0.00030288,-0.00062362,0.09397324,-0.12695575,0.
 10179132,0.00985100,-0.00633156,0.01186528,-0.00035904,0.00309408,-0.0
 0267568,0.00435854,0.00264681,-0.00129721,-0.00007825,-0.00018829,-0.0
 0022761,0.00006242,-0.00001494,0.00000981,-0.00323460,-0.00229969,0.00
 155394,0.00018196,-0.00020504,-0.00085707,-0.00012182,0.00011897,0.000
 13292,-0.00181509,-0.00092695,-0.00071525,0.00073339,-0.00041547,0.000
 28254,0.00006072,0.00043387,-0.00010954,-0.00027421,-0.00031081,0.0000
 2153,-0.10539894,0.12761130,0.00297982,-0.00116402,-0.00497815,0.00072
 004,-0.00067048,-0.00007153,-0.09747943,0.10024706,-0.17636951,0.00625
 812,-0.00575826,0.00925119,-0.01833695,0.01779613,-0.01610440,0.001939
 72,-0.00062091,-0.00023661,0.00031416,-0.00022638,-0.00024277,-0.00000
 777,0.00002061,0.00000065,0.00078409,-0.00220630,0.00070866,0.00015227
 ,0.00054604,0.00023198,-0.00017515,0.00000703,0.00007734,-0.00050005,-
 0.00006108,0.00102859,0.00072150,-0.00064230,0.00030959,-0.00092081,0.
 00091886,-0.00071729,-0.00011565,0.00002040,0.00003479,0.10362189,-0.1
 0831580,0.18705705,0.00001176,-0.00001326,-0.00000222,-0.00001546,0.00
 000804,0.00001766,-0.00000717,0.00001126,-0.00002379,-0.00004869,-0.00
 010947,-0.00002025,-0.00000747,0.00001716,-0.00000365,0.00002230,-0.00
 000378,-0.00001017,0.00841771,-0.00965182,0.00615730,-0.15150402,0.121
 65521,-0.04767860,0.00018373,0.00009005,-0.00052391,-0.00026168,-0.000
 42201,-0.00044563,-0.00081971,0.00045667,-0.00107005,0.00001498,-0.000
 01026,-0.00000501,-0.00001696,-0.00001272,-0.00001366,0.00000076,0.000
 00164,0.00000052,0.00000309,0.00000255,0.00000070,-0.00000206,-0.00001
 323,0.00000112,0.16101819,0.00002966,-0.00003196,-0.00003936,-0.000056
 26,0.00008399,0.00003733,-0.00002149,0.00001530,-0.00010416,-0.0002963
 8,-0.00032409,0.00008977,-0.00002314,0.00006287,0.00001024,0.00035236,
 -0.00024050,-0.00013814,0.02033594,-0.02327788,0.00901695,0.12303635,-
 0.19282764,0.05950137,0.00011627,0.00047905,-0.00125588,-0.00264042,-0
 .00239206,-0.00140720,-0.00199300,0.00358651,-0.00204974,0.00001805,-0
 .00001099,-0.00001764,-0.00018474,0.00014603,0.00002409,-0.00000622,0.
 00000266,-0.00000025,-0.00000025,0.00000079,-0.00002235,-0.00002115,-0
 .00000315,0.00001105,-0.13349493,0.20790372,0.00002476,-0.00002415,-0.
 00002344,-0.00005659,0.00006012,0.00003651,-0.00001351,0.00001445,-0.0
 0005521,-0.00016665,-0.00021670,0.00002568,0.00000824,0.00002015,-0.00
 001306,0.00028607,-0.00019159,-0.00011884,0.00905987,-0.01160984,0.003
 25015,-0.04743478,0.05777217,-0.06595972,-0.00027712,0.00032246,-0.000
 96136,-0.00110501,-0.00137248,-0.00151193,0.00046102,0.00153100,-0.000
 10837,-0.00000929,0.00001011,-0.00000077,-0.00013107,0.00013287,0.0000
 6151,-0.00000446,0.00000300,0.00000160,-0.00000268,-0.00000401,-0.0000
 1785,-0.00001355,-0.00000063,0.00000502,0.05347611,-0.06121318,0.07016
 608,0.00000401,0.00000028,-0.00000929,0.00000914,-0.00000239,-0.000005
 76,0.00001308,-0.00000345,-0.00001378,-0.00002393,-0.00001673,0.000029
 62,-0.00000790,0.00000745,0.00000471,-0.00003358,0.00001645,-0.0000043
 2,-0.00083255,0.00258584,-0.01163354,-0.04880399,-0.00206301,-0.004591
 26,0.00033327,-0.00015278,0.00001012,-0.00051713,-0.00063100,0.0001007
 6,0.00026301,-0.00079359,0.00137349,0.00000861,-0.00000581,-0.00000630
 ,0.00001808,-0.00001203,-0.00001069,0.00000035,-0.00000142,-0.00000197
 ,-0.00000259,-0.00000120,-0.00000139,-0.00000564,0.00000290,0.00000310
 ,-0.00032671,-0.00050816,-0.02156119,0.04687476,-0.00000096,0.00000392
 ,-0.00002758,-0.00000920,0.00000480,-0.00001012,0.00003805,0.00000792,
 -0.00009119,-0.00001876,-0.00000496,0.00017555,-0.00002255,0.00003307,
 0.00003902,0.00009371,-0.00004044,0.00000432,-0.00044269,0.00004242,-0
 .03470951,-0.00260511,-0.04418847,0.00274658,0.00113061,-0.00114594,0.
 00053636,-0.00184059,-0.00427331,-0.00034514,0.00215019,0.00087548,0.0
 0326146,0.00002303,-0.00001772,-0.00001485,-0.00005273,0.00003821,-0.0
 0001112,-0.00000246,-0.00000061,-0.00000211,-0.00000090,-0.00000102,-0
 .00000844,-0.00001992,0.00000080,0.00000033,-0.00046961,0.00048680,0.0
 2540975,0.00163573,0.04946427,0.00000587,-0.00000438,-0.00001394,0.000
 00416,-0.00000667,0.00000075,0.00000599,0.00000630,-0.00004421,-0.0000
 2128,-0.00001555,0.00005374,-0.00004309,0.00004484,0.00003045,-0.00000
 175,0.00001024,0.00001629,0.00170433,0.00009381,-0.01112426,-0.0054725
 8,0.00302772,-0.32102104,0.00043704,-0.00013324,0.00030857,-0.00147938
 ,-0.00174133,0.00003777,0.00041869,0.00040870,0.00253052,0.00003648,-0
 .00002907,-0.00001873,0.00000384,-0.00002128,-0.00001805,0.00000101,-0
 .00000003,-0.00000241,0.00000156,0.00000262,-0.00000095,-0.00000792,0.
 00000016,0.00000325,0.00013225,0.00009476,-0.00856304,0.00540919,-0.00
 225730,0.34623631,0.00001479,-0.00000054,-0.00003082,0.00002124,-0.000
 00033,0.00000175,0.00002436,-0.00001067,-0.00005636,0.00001636,-0.0000
 2414,0.00011638,-0.00002319,0.00000627,0.00001452,-0.00005058,0.000024
 97,-0.00003968,-0.01159171,0.00439756,0.00691711,-0.27305846,-0.047236
 26,0.08449490,0.00038883,-0.00033141,-0.00042195,0.00116481,0.00092694
 ,-0.00027956,0.00068563,-0.00434293,-0.00162700,0.00002284,-0.00001128
 ,-0.00001199,0.00004180,0.00000815,0.00000523,-0.00000055,-0.00000498,
 -0.00000327,-0.00000878,-0.00000655,-0.00000536,-0.00000863,-0.0000037
 2,0.00000527,-0.01673115,-0.00480597,0.00725046,0.00261962,0.00092748,
 -0.00062803,0.29515782,0.00000361,-0.00000177,-0.00000499,0.00000969,-
 0.00000526,0.00000535,0.00000471,-0.00000876,-0.00001126,0.00006691,0.
 00008818,0.00004304,-0.00000784,-0.00000973,-0.00000179,-0.00007486,0.
 00004235,-0.00000591,-0.02576122,0.00188835,0.01659757,-0.04469991,-0.
 06039889,0.01472884,0.00039824,0.00030638,0.00009055,0.00180129,0.0003
 5974,-0.00045414,-0.00468007,-0.00771527,-0.00337091,0.00000956,-0.000
 00447,-0.00000057,0.00003738,-0.00002145,-0.00001322,0.00000097,-0.000
 00135,0.00000011,0.00000020,-0.00000054,0.00000267,-0.00000014,-0.0000
 0910,0.00000088,0.02192080,0.00651783,-0.01039256,0.00041228,-0.001117
 79,0.00031358,0.05081347,0.06124177,-0.00000260,0.00000485,0.00000210,
 -0.00000263,0.00000468,-0.00000613,0.00000629,-0.00001251,0.00002764,0
 .00000221,0.00005870,-0.00002092,0.00002426,-0.00002541,-0.00001528,0.
 00000940,-0.00001341,-0.00001601,-0.01102588,0.00166756,0.00219203,0.0
 8622782,0.01628407,-0.08338958,0.00000502,0.00041470,0.00027901,0.0002
 4134,-0.00013574,-0.00062962,-0.00150516,-0.00361886,0.00167925,-0.000
 02327,0.00001797,0.00000945,-0.00000527,0.00002531,0.00001135,-0.00000
 071,-0.00000029,0.00000066,-0.00000271,-0.00000263,-0.00000191,0.00000
 192,0.00000584,0.00000040,-0.00952967,-0.00304479,0.00315943,0.0310861
 1,0.00594529,-0.00825738,-0.09520651,-0.01623466,0.08467283,0.00013844
 ,-0.00002446,-0.00026193,-0.00014730,-0.00004319,0.00033671,0.00012086
 ,-0.00087878,-0.00008190,-0.00030082,0.00186139,0.00461712,-0.00029013
 ,-0.00001706,0.00019082,0.00007273,0.00099808,-0.00098407,-0.00145343,
 0.00048713,0.00220616,-0.00053967,-0.00027419,0.00011176,-0.30556013,-
 0.02243085,0.04720336,-0.01231736,-0.00901012,-0.00027595,0.00012782,0
 .00270600,0.00098100,0.00011249,-0.00005214,-0.00003588,0.00012081,0.0
 0041104,-0.00108936,-0.00001490,-0.00002076,0.00001372,-0.00000427,-0.
 00001628,-0.00000545,0.00015006,-0.00008790,-0.00001020,0.00001951,-0.
 00000216,-0.00001242,0.00005569,0.00003908,-0.00002959,0.00011561,-0.0
 0016746,-0.00015341,0.33293938,0.00003128,-0.00007235,0.00000797,0.000
 17939,-0.00005033,-0.00014933,0.00040209,-0.00012258,-0.00021565,0.000
 73209,-0.00020363,-0.00104176,-0.00035858,-0.00009061,-0.00040431,-0.0
 0032122,0.00045448,0.00048963,-0.00586158,-0.00049510,0.00192318,0.000
 27906,0.00003273,0.00011242,-0.01192222,-0.04996072,0.00625990,-0.0365
 4892,-0.01178551,0.00377513,0.00330773,0.00101825,0.00058475,0.0000687
 1,-0.00006145,-0.00003440,0.00028322,-0.00055357,0.00051772,0.00004142
 ,0.00005526,-0.00002136,-0.00000387,0.00001338,0.00001166,-0.00001744,
 0.00044699,-0.00004786,0.00012486,-0.00001214,-0.00006195,0.00005062,0
 .00005889,-0.00002798,0.00025026,0.00033453,0.00003054,0.02648308,0.06
 189658,0.00020549,0.00004446,-0.00014920,-0.00012000,-0.00072992,0.000
 10975,-0.00012924,0.00112223,-0.00368750,0.03126915,0.00171429,-0.0076
 5148,-0.00032256,-0.00114886,-0.00029471,0.00128477,-0.00142293,0.0006
 1530,-0.00447386,-0.00188650,0.00282078,0.00084145,0.00027893,0.000018
 48,0.05312207,0.00842744,-0.05913579,-0.01385807,-0.00325472,0.0024957
 7,0.00260020,0.00116667,-0.00181745,0.00016161,-0.00014113,-0.00025861
 ,-0.00099013,0.00117709,0.00008308,-0.00002206,0.00003536,0.00001408,-
 0.00003075,0.00005154,0.00003415,0.00043806,0.00028176,-0.00003518,0.0
 0008623,-0.00001906,-0.00004236,-0.00001064,-0.00002291,-0.00003524,0.
 00016737,0.00041134,0.00013673,-0.05372519,-0.00255347,0.06483352,0.00
 011680,-0.00009130,0.00010402,0.00024664,0.00005201,0.00018496,0.00041
 298,-0.00084323,0.00146961,0.00230533,-0.00469173,0.00554138,0.0000518
 7,-0.00015930,-0.00020957,-0.00052138,0.00118736,0.00127445,-0.0011816
 4,-0.00048168,0.00063067,-0.00034148,0.00040292,-0.00074049,-0.1145203
 3,0.09296187,-0.05620960,0.01000249,-0.01259967,0.00436442,0.00125219,
 -0.00007880,0.00055018,0.00011159,-0.00010412,-0.00009394,0.00026162,0
 .00004443,-0.00073053,0.00002459,0.00000400,-0.00000605,-0.00002138,-0
 .00007041,0.00007155,0.00016709,0.00009558,0.00008916,0.00000880,0.000
 09083,0.00007787,0.00001608,-0.00013694,-0.00008960,-0.00002119,-0.000
 02532,0.00001583,-0.01332467,0.02403893,-0.01621898,0.11483531,-0.0001
 0074,0.00016061,-0.00009434,-0.00003563,-0.00009611,-0.00034090,0.0002
 7059,0.00001437,-0.00208494,0.00163378,0.00111021,0.00079947,-0.000177
 96,0.00025463,0.00008783,0.00040203,0.00055357,-0.00020111,-0.00600007
 ,-0.00071983,0.00674631,-0.00020670,0.00036339,-0.00155863,0.09133310,
 -0.18410577,0.08981576,0.00914733,-0.03658215,-0.00347945,0.00305129,0
 .00111022,-0.00087626,-0.00000491,-0.00001437,-0.00003205,-0.00023674,
 0.00029848,-0.00009290,-0.00003418,0.00001882,-0.00003067,-0.00007842,
 -0.00008267,-0.00003714,-0.00049066,0.00052133,0.00013873,0.00003297,0
 .00009529,0.00010730,-0.00004493,-0.00042170,-0.00016661,-0.00001714,0
 .00001976,0.00007460,0.00013756,0.00330935,-0.00154907,-0.09929108,0.2
 1525694,0.00026065,-0.00015832,0.00023401,-0.00159790,0.00099930,-0.00
 035561,-0.00217152,0.00152391,0.00096513,-0.01709296,0.02377083,-0.019
 37729,-0.00006214,0.00005625,-0.00015542,0.00354337,-0.00116640,-0.005
 18786,-0.00257210,-0.00165985,0.00268005,-0.00019027,0.00036582,-0.000
 98978,-0.05388525,0.08670833,-0.10238946,0.00922383,-0.01756105,0.0068
 8134,0.00104457,0.00124367,-0.00034517,0.00015681,-0.00012753,-0.00001
 790,0.00006236,-0.00004737,0.00013350,0.00006389,-0.00004309,0.0000282
 6,0.00007098,-0.00013779,-0.00052604,0.00119515,-0.00074628,0.00002261
 ,0.00003086,0.00007804,0.00006541,-0.00008952,-0.00030056,-0.00014062,
 -0.00001969,0.00001115,0.00003029,0.00271625,-0.00525614,0.00370582,0.
 05923947,-0.08772915,0.11456257,-0.00016844,0.00015501,-0.00000131,0.0
 0007966,-0.00005394,-0.00023752,0.00022694,-0.00024673,-0.00030135,0.0
 0049642,0.00028558,0.00006603,0.00004492,-0.00025611,0.00015728,0.0001
 2910,-0.00013805,-0.00022739,-0.01556981,-0.00981649,-0.00260117,-0.00
 028195,0.00027562,-0.00170861,-0.00369770,0.00156242,0.00061193,-0.350
 48175,-0.14315185,0.11849737,0.00205343,0.00170084,0.00470008,-0.00016
 783,0.00011767,0.00005587,-0.00012614,0.00019778,0.00014539,-0.0000043
 0,0.00002151,0.00000679,-0.00000716,-0.00001837,0.00000403,0.00003149,
 0.00021478,-0.00004426,0.00004023,0.00007481,0.00014391,0.00033833,-0.
 00041547,-0.00038718,0.00122052,-0.00006228,-0.00016238,-0.00002075,-0
 .00123892,-0.00027492,0.00011869,0.00071051,0.00007315,0.36574610,0.00
 014342,-0.00014313,0.00010655,-0.00018836,0.00000681,0.00019835,0.0001
 3716,0.00024788,-0.00010235,0.00038598,0.00097753,0.00083305,0.0001172
 8,-0.00005147,-0.00035106,-0.00019783,0.00050837,-0.00023821,0.0169194
 3,0.01103229,0.00308540,0.00171238,-0.00127693,0.00048620,-0.02312277,
 -0.00683852,0.01068765,-0.14764543,-0.11195490,0.01524664,0.00292732,0
 .00048735,-0.00677012,0.00003386,-0.00002445,0.00000521,0.00021157,-0.
 00022092,-0.00010156,0.00001471,-0.00001292,0.00000998,0.00001096,0.00
 000678,-0.00000160,0.00001537,-0.00027992,0.00000626,-0.00012012,-0.00
 026044,-0.00029628,-0.00047507,0.00019538,0.00040071,-0.00055920,-0.00
 150452,-0.00144580,-0.00009801,-0.00421245,-0.00198255,-0.00030435,-0.
 00106437,0.00017623,0.15008169,0.11438254,-0.00005958,0.00002922,0.000
 00327,-0.00004355,0.00007917,-0.00015305,0.00080231,-0.00017493,-0.000
 01917,-0.00121212,0.00026320,0.00249811,0.00026860,-0.00024890,-0.0001
 4871,-0.00037274,0.00048918,-0.00055696,0.01610627,0.01873956,-0.00624
 299,-0.00033210,0.00117668,-0.00203177,-0.01708149,-0.00475394,0.00209
 183,0.11757925,0.01565460,-0.06184613,0.00540024,-0.00647303,0.0001864
 5,-0.00018417,0.00015131,0.00007270,0.00008751,-0.00000214,-0.00002162
 ,-0.00000825,0.00000052,0.00000217,-0.00000879,-0.00002180,-0.00000888
 ,-0.00010292,0.00002423,0.00002432,-0.00057614,0.00044814,0.00060456,-
 0.00007746,-0.00031783,0.00002222,-0.00064277,-0.00171508,0.00013569,-
 0.00171156,-0.00389868,-0.00175995,0.00068519,0.00050321,0.00017616,-0
 .11851574,-0.01995269,0.06697173\\0.00000614,-0.00000594,0.00000193,-0
 .00000505,0.00000231,0.00000749,-0.00000550,0.00000378,0.00000762,0.00
 000546,-0.00000113,0.00000205,-0.00000098,0.00000428,-0.00001039,-0.00
 000006,0.00000259,-0.00000868,0.00000951,-0.00001095,-0.00000995,0.000
 00606,-0.00000230,0.00000342,-0.00000680,-0.00001264,-0.00000298,-0.00
 000173,0.00001640,0.00000788,-0.00000441,0.00000214,0.00000311,-0.0000
 0031,-0.00000071,0.00000023,0.00000021,-0.00000033,0.00000320,-0.00000
 142,0.00000063,-0.00000054,-0.00000016,-0.00000033,-0.00000046,0.00000
 016,-0.00000115,-0.00000186,-0.00000081,-0.00000077,0.00000059,-0.0000
 0236,0.00000014,-0.00000200,-0.00000009,0.00000401,0.00000017,0.000002
 18,0.00000268,0.00000120,-0.00000026,0.00000109,-0.00000048,0.00000022
 ,-0.00000382,-0.00000156\\\@


 Children are likely to live up to what you believe of them.
 -- Lady Bird Johnson
 Job cpu time:  0 days  1 hours 13 minutes  3.5 seconds.
 File lengths (MBytes):  RWF=    155 Int=      0 D2E=      0 Chk=      4 Scr=      1
 Normal termination of Gaussian 09 at Fri Feb 16 21:43:49 2018.
