 Entering Gaussian System, Link 0=g09
 Initial command:
 /home/fb_chem/chemsoft/lx24-amd64/Gaussian_09_C.01_NBO_3.1_64_istanbul-64/g09/l1.exe /local/2400070.1.parallel/Gau-22246.inp -scrdir=/local/2400070.1.parallel/
 Entering Link 1 = /home/fb_chem/chemsoft/lx24-amd64/Gaussian_09_C.01_NBO_3.1_64_istanbul-64/g09/l1.exe PID=     22247.
  
 Copyright (c) 1988,1990,1992,1993,1995,1998,2003,2009,2011,
            Gaussian, Inc.  All Rights Reserved.
  
 This is part of the Gaussian(R) 09 program.  It is based on
 the Gaussian(R) 03 system (copyright 2003, Gaussian, Inc.),
 the Gaussian(R) 98 system (copyright 1998, Gaussian, Inc.),
 the Gaussian(R) 94 system (copyright 1995, Gaussian, Inc.),
 the Gaussian 92(TM) system (copyright 1992, Gaussian, Inc.),
 the Gaussian 90(TM) system (copyright 1990, Gaussian, Inc.),
 the Gaussian 88(TM) system (copyright 1988, Gaussian, Inc.),
 the Gaussian 86(TM) system (copyright 1986, Carnegie Mellon
 University), and the Gaussian 82(TM) system (copyright 1983,
 Carnegie Mellon University). Gaussian is a federally registered
 trademark of Gaussian, Inc.
  
 This software contains proprietary and confidential information,
 including trade secrets, belonging to Gaussian, Inc.
  
 This software is provided under written license and may be
 used, copied, transmitted, or stored only in accord with that
 written license.
  
 The following legend is applicable only to US Government
 contracts under FAR:
  
                    RESTRICTED RIGHTS LEGEND
  
 Use, reproduction and disclosure by the US Government is
 subject to restrictions as set forth in subparagraphs (a)
 and (c) of the Commercial Computer Software - Restricted
 Rights clause in FAR 52.227-19.
  
 Gaussian, Inc.
 340 Quinnipiac St., Bldg. 40, Wallingford CT 06492
  
  
 ---------------------------------------------------------------
 Warning -- This program may not be used in any manner that
 competes with the business of Gaussian, Inc. or will provide
 assistance to any competitor of Gaussian, Inc.  The licensee
 of this program is prohibited from giving any competitor of
 Gaussian, Inc. access to this program.  By using this program,
 the user acknowledges that Gaussian, Inc. is engaged in the
 business of creating and licensing software in the field of
 computational chemistry and represents and warrants to the
 licensee that it is not a competitor of Gaussian, Inc. and that
 it will not use this program in any manner prohibited above.
 ---------------------------------------------------------------
  

 Cite this work as:
 Gaussian 09, Revision C.01,
 M. J. Frisch, G. W. Trucks, H. B. Schlegel, G. E. Scuseria, 
 M. A. Robb, J. R. Cheeseman, G. Scalmani, V. Barone, B. Mennucci, 
 G. A. Petersson, H. Nakatsuji, M. Caricato, X. Li, H. P. Hratchian, 
 A. F. Izmaylov, J. Bloino, G. Zheng, J. L. Sonnenberg, M. Hada, 
 M. Ehara, K. Toyota, R. Fukuda, J. Hasegawa, M. Ishida, T. Nakajima, 
 Y. Honda, O. Kitao, H. Nakai, T. Vreven, J. A. Montgomery, Jr., 
 J. E. Peralta, F. Ogliaro, M. Bearpark, J. J. Heyd, E. Brothers, 
 K. N. Kudin, V. N. Staroverov, T. Keith, R. Kobayashi, J. Normand, 
 K. Raghavachari, A. Rendell, J. C. Burant, S. S. Iyengar, J. Tomasi, 
 M. Cossi, N. Rega, J. M. Millam, M. Klene, J. E. Knox, J. B. Cross, 
 V. Bakken, C. Adamo, J. Jaramillo, R. Gomperts, R. E. Stratmann, 
 O. Yazyev, A. J. Austin, R. Cammi, C. Pomelli, J. W. Ochterski, 
 R. L. Martin, K. Morokuma, V. G. Zakrzewski, G. A. Voth, 
 P. Salvador, J. J. Dannenberg, S. Dapprich, A. D. Daniels, 
 O. Farkas, J. B. Foresman, J. V. Ortiz, J. Cioslowski, 
 and D. J. Fox, Gaussian, Inc., Wallingford CT, 2010.
 
 ******************************************
 Gaussian 09:  AM64L-G09RevC.01 23-Sep-2011
                17-Feb-2018 
 ******************************************
 %nprocs=2
 Will use up to    2 processors via shared memory.
 %chk=frag40-conf0.chk
 ----------------------------------------------------------------------
 #HF/6-31G* Geom=AllCheck Guess=Read Pop=(MK,ReadRadii) Integral=(Grid=
 UltraFine) iop(6/33=2)
 ----------------------------------------------------------------------
 1/29=7,38=1/1;
 2/12=2,40=1/2;
 3/5=1,6=6,7=1,11=9,14=-4,16=1,25=1,30=1,75=-5,116=-2/1,2,3;
 4/5=1/1;
 5/5=2,38=6/2;
 6/7=2,8=2,9=2,10=2,15=8,20=101,28=1,33=2/1,2;
 99/5=1,9=1/99;
 Structure from the checkpoint file:  frag40-conf0.chk
 -----------------------------
 Optimization for frag40-conf0
 -----------------------------
 Charge =  1 Multiplicity = 1
 Redundant internal coordinates found in file.
 C,0,6.4476878843,-1.7973765922,-0.6588701219
 C,0,3.4720630213,-4.9951356121,-2.4530840134
 C,0,-0.6792112775,-2.464938133,-1.631874092
 C,0,-0.0254686888,-2.0109030472,-2.9438799884
 C,0,0.3166140602,-2.4040753146,-0.4657345128
 C,0,1.2512945768,-2.8120079792,-3.2487921404
 C,0,1.5911927578,-3.2115072152,-0.7660810907
 C,0,2.2534407491,-2.7325488886,-2.0761063313
 C,0,8.3550846115,-0.5298725525,0.2572160993
 C,0,3.0608343468,-7.1125557258,-3.5509687201
 C,0,3.181106874,-5.0860753435,-4.9486079731
 C,0,4.9076391141,-1.8787504783,-0.800977253
 C,0,3.587024498,-3.4461829279,-2.4231810481
 N,0,6.9245214004,-0.7811554664,0.0706024329
 N,0,3.2199400231,-5.6532257818,-3.6019326272
 N,0,4.6337903231,-3.2412363666,-1.3396708014
 O,0,7.1227578227,-2.6478275904,-1.2418304362
 O,0,3.6101491334,-5.556036972,-1.3565762363
 H,0,-1.5551453,-1.8443312046,-1.4127019466
 H,0,-1.0460638285,-3.4951215951,-1.7435688642
 H,0,-0.7265582287,-2.1152970191,-3.7794704521
 H,0,0.225359974,-0.9423457196,-2.8799291069
 H,0,0.5854945329,-1.3557999205,-0.2688745508
 H,0,-0.1440751027,-2.7845668387,0.4526541199
 H,0,0.9836327455,-3.8619367426,-3.4281735415
 H,0,1.7142758596,-2.4344001212,-4.1697804359
 H,0,2.2838917361,-3.1267349524,0.0831136005
 H,0,1.3430970774,-4.276322783,-0.8467136426
 H,0,2.5016623469,-1.6665119647,-1.9571698301
 H,0,8.608056695,-0.5690616685,1.3203762009
 H,0,8.6221159075,0.4515927134,-0.1448867462
 H,0,8.9067993389,-1.3034704331,-0.2757676106
 H,0,2.1330438318,-7.3930346189,-4.0594972869
 H,0,3.0276712599,-7.4335335785,-2.5121274687
 H,0,3.9028510126,-7.5973216915,-4.0575429889
 H,0,3.9417139742,-5.5722759772,-5.5697123084
 H,0,3.369023759,-4.0147028429,-4.9468057691
 H,0,2.1999210814,-5.2620051643,-5.4021920994
 H,0,4.5683893893,-1.1304459215,-1.5216201629
 H,0,4.3737991776,-1.7300731762,0.1392352539
 H,0,4.0132514242,-3.0183956488,-3.3326459383
 H,0,6.2707857,-0.151673678,0.5188326566
 H,0,5.5777294099,-3.5418184215,-1.6804958381
 H,0,4.377431899,-3.9402218321,-0.6169421279
 Recover connectivity data from disk.
                          Input orientation:                          
 ---------------------------------------------------------------------
 Center     Atomic      Atomic             Coordinates (Angstroms)
 Number     Number       Type             X           Y           Z
 ---------------------------------------------------------------------
      1          6           0        6.447688   -1.797377   -0.658870
      2          6           0        3.472063   -4.995136   -2.453084
      3          6           0       -0.679211   -2.464938   -1.631874
      4          6           0       -0.025469   -2.010903   -2.943880
      5          6           0        0.316614   -2.404075   -0.465735
      6          6           0        1.251295   -2.812008   -3.248792
      7          6           0        1.591193   -3.211507   -0.766081
      8          6           0        2.253441   -2.732549   -2.076106
      9          6           0        8.355085   -0.529873    0.257216
     10          6           0        3.060834   -7.112556   -3.550969
     11          6           0        3.181107   -5.086075   -4.948608
     12          6           0        4.907639   -1.878750   -0.800977
     13          6           0        3.587024   -3.446183   -2.423181
     14          7           0        6.924521   -0.781155    0.070602
     15          7           0        3.219940   -5.653226   -3.601933
     16          7           0        4.633790   -3.241236   -1.339671
     17          8           0        7.122758   -2.647828   -1.241830
     18          8           0        3.610149   -5.556037   -1.356576
     19          1           0       -1.555145   -1.844331   -1.412702
     20          1           0       -1.046064   -3.495122   -1.743569
     21          1           0       -0.726558   -2.115297   -3.779470
     22          1           0        0.225360   -0.942346   -2.879929
     23          1           0        0.585495   -1.355800   -0.268875
     24          1           0       -0.144075   -2.784567    0.452654
     25          1           0        0.983633   -3.861937   -3.428174
     26          1           0        1.714276   -2.434400   -4.169780
     27          1           0        2.283892   -3.126735    0.083114
     28          1           0        1.343097   -4.276323   -0.846714
     29          1           0        2.501662   -1.666512   -1.957170
     30          1           0        8.608057   -0.569062    1.320376
     31          1           0        8.622116    0.451593   -0.144887
     32          1           0        8.906799   -1.303470   -0.275768
     33          1           0        2.133044   -7.393035   -4.059497
     34          1           0        3.027671   -7.433534   -2.512127
     35          1           0        3.902851   -7.597322   -4.057543
     36          1           0        3.941714   -5.572276   -5.569712
     37          1           0        3.369024   -4.014703   -4.946806
     38          1           0        2.199921   -5.262005   -5.402192
     39          1           0        4.568389   -1.130446   -1.521620
     40          1           0        4.373799   -1.730073    0.139235
     41          1           0        4.013251   -3.018396   -3.332646
     42          1           0        6.270786   -0.151674    0.518833
     43          1           0        5.577729   -3.541818   -1.680496
     44          1           0        4.377432   -3.940222   -0.616942
 ---------------------------------------------------------------------
                    Distance matrix (angstroms):
                    1          2          3          4          5
     1  C    0.000000
     2  C    4.722204   0.000000
     3  C    7.223923   4.930453   0.000000
     4  C    6.867941   4.623770   1.534564   0.000000
     5  C    6.164045   4.540926   1.534684   2.532353   0.000000
     6  C    5.894037   3.214189   2.541994   1.537812   2.964025
     7  C    5.059328   3.092731   2.541987   2.966117   1.538410
     8  C    4.524910   2.597393   2.978155   2.543075   2.540175
     9  C    2.466565   7.150399   9.430358   9.092532   8.285668
    10  C    6.934417   2.420316   6.266675   5.993387   6.262524
    11  C    6.315690   2.514073   5.724783   4.874192   5.957734
    12  C    1.548731   3.808174   5.678636   5.380060   4.633127
    13  C    3.743628   1.553501   4.448570   3.921895   3.951350
    14  N    1.338733   6.003840   7.971844   7.674747   6.825391
    15  N    5.826452   1.347777   5.408298   4.922624   5.368614
    16  N    2.416287   2.380223   5.377361   5.078967   4.483594
    17  O    1.232408   4.506058   7.813853   7.375621   6.854585
    18  O    4.760877   1.239358   5.294270   5.320265   4.644979
    19  H    8.038396   6.023519   1.095650   2.170752   2.171070
    20  H    7.759847   4.813203   1.099243   2.164548   2.163362
    21  H    7.830008   5.261292   2.176387   1.095735   3.486036
    22  H    6.661948   5.210411   2.166605   1.099463   2.823706
    23  H    5.891723   5.133012   2.165049   2.821009   1.099969
    24  H    6.757320   5.138714   2.175728   3.485551   1.095649
    25  H    6.464313   2.902968   2.818394   2.163135   3.368430
    26  H    5.927688   3.548835   3.488650   2.169998   3.959083
    27  H    4.433388   3.366745   3.486995   3.967482   2.166484
    28  H    5.677791   2.762176   2.826185   3.376863   2.168899
    29  H    4.156179   3.502477   3.295642   2.734702   2.746419
    30  H    3.177006   7.759353   9.927914   9.736557   8.677873
    31  H    3.170202   7.843320   9.860627   9.416951   8.788580
    32  H    2.537310   6.921377   9.750879   9.349048   8.662488
    33  H    7.841671   3.181738   6.171569   5.905177   6.411261
    34  H    6.848163   2.479265   6.261211   6.238028   6.069020
    35  H    7.187944   3.087271   7.295240   6.919539   7.261680
    36  H    6.681777   3.204221   6.820196   5.942803   7.016369
    37  H    5.725478   2.681513   5.456991   4.421482   5.656087
    38  H    7.248881   3.222856   5.507112   4.643848   6.006931
    39  H    2.172763   4.123758   5.415749   4.888922   4.562304
    40  H    2.223177   4.265428   5.404606   5.379407   4.157044
    41  H    3.816601   2.230250   5.021767   4.180603   4.718230
    42  H    2.031407   6.334371   7.634081   7.422259   6.441649
    43  H    2.200824   2.672612   6.349121   5.944381   5.518101
    44  H    2.979850   2.303031   5.364344   5.340641   4.344290
                    6          7          8          9         10
     6  C    0.000000
     7  C    2.537515   0.000000
     8  C    1.544604   1.544066   0.000000
     9  C    8.244032   7.347689   6.893927   0.000000
    10  C    4.675517   5.013345   4.691648   9.266233   0.000000
    11  C    3.432919   4.851326   3.827652   8.638844   2.464647
    12  C    4.497958   3.574392   3.065892   3.850211   6.194018
    13  C    2.557234   2.604688   1.551831   6.198693   3.871830
    14  N    6.879553   5.920392   5.498662   1.464404   8.254119
    15  N    3.474592   4.081282   3.434038   8.216537   1.468862
    16  N    3.907718   3.096335   2.543062   4.873353   4.727700
    17  O    6.207168   5.580527   4.940996   2.872543   6.462595
    18  O    4.083426   3.149871   3.214104   7.097962   2.745880
    19  H    3.490520   3.490950   3.966656  10.135536   7.323499
    20  H    2.830229   2.826843   3.402768  10.058699   5.763604
    21  H    2.163083   3.956534   3.487527  10.064027   6.274484
    22  H    2.164310   3.388650   2.822068   8.723774   6.823613
    23  H    3.382860   2.168477   2.818434   7.831057   7.073874
    24  H    3.955820   2.163041   3.485028   8.795315   6.710583
    25  H    1.098258   2.806942   2.171639   8.889491   3.859581
    26  H    1.097797   3.493453   2.182444   8.205234   4.907269
    27  H    3.502414   1.099159   2.195117   6.605557   5.449492
    28  H    2.814716   1.096305   2.173332   8.026364   4.278765
    29  H    2.131635   2.152825   1.100997   6.360661   5.701952
    30  H    8.945952   7.782815   7.523159   1.093545   9.865039
    31  H    8.637958   7.952236   7.377560   1.093740   9.987271
    32  H    8.349929   7.576220   7.039223   1.089456   8.868355
    33  H    4.735032   5.350268   5.066405  10.220117   1.094562
    34  H    5.005666   4.789327   4.784225   9.149379   1.087804
    35  H    5.530285   5.950870   5.505693   9.401509   1.095722
    36  H    4.499345   5.845772   4.808284   8.880133   2.687701
    37  H    2.968923   4.613487   3.336069   8.005416   3.411749
    38  H    3.396985   5.105744   4.178978   9.607706   2.755492
    39  H    4.100475   3.710169   2.869351   4.226583   6.494353
    40  H    4.732795   3.279808   3.226239   4.159932   6.656771
    41  H    2.770926   3.534249   2.181177   6.158845   4.209146
    42  H    6.816720   5.736913   5.434490   2.134427   8.678764
    43  H    4.659422   4.103381   3.444172   4.532135   4.752220
    44  H    4.239367   2.883816   2.845869   5.311907   4.517261
                   11         12         13         14         15
    11  C    0.000000
    12  C    5.520026   0.000000
    13  C    3.038387   2.613888   0.000000
    14  N    7.598550   2.456050   4.945727   0.000000
    15  N    1.461746   4.994031   2.528882   7.137822   0.000000
    16  N    4.305595   1.490487   1.520433   3.645314   3.596456
    17  O    5.934801   2.385913   3.812397   2.290468   5.462096
    18  O    3.647963   3.938859   2.364247   5.985098   2.281082
    19  H    6.741188   6.491762   5.479864   8.673827   6.488594
    20  H    5.538265   6.240810   4.682924   8.613191   5.129300
    21  H    5.046014   6.377425   4.713573   8.668449   5.303141
    22  H    5.494212   5.207939   4.216469   7.321911   5.628605
    23  H    6.523194   4.386063   4.244988   6.374066   6.042967
    24  H    6.747400   5.283172   4.757023   7.356948   5.998790
    25  H    2.939239   5.121817   2.821438   7.551609   2.870536
    26  H    3.128825   4.674949   2.753453   6.918145   3.598655
    27  H    5.473777   3.036961   2.842836   5.199745   4.564965
    28  H    4.567222   4.296092   2.865239   6.649057   3.606887
    29  H    4.593883   2.677788   2.135979   4.945442   4.372077
    30  H    9.442212   4.461896   6.892228   2.107418   8.894361
    31  H    9.129408   4.433767   6.762797   2.109012   8.854574
    32  H    8.302234   4.074319   6.123937   2.078993   7.894562
    33  H    2.685333   6.980234   4.513228   9.150570   2.101819
    34  H    3.386819   6.108840   4.027375   8.130810   2.096220
    35  H    2.760665   6.657092   4.472453   8.522453   2.110322
    36  H    1.095758   6.108680   3.814018   7.979043   2.097538
    37  H    1.087729   4.910960   2.596039   6.947789   2.125010
    38  H    1.095178   6.320548   3.754434   8.505959   2.105808
    39  H    5.414407   1.092875   2.671802   2.865054   5.157669
    40  H    6.210589   1.091371   3.182770   2.722377   5.542459
    41  H    2.753016   2.916859   1.091695   5.006280   2.764812
    42  H    7.986698   2.565709   5.168347   1.012190   7.520335
    43  H    4.336944   1.997090   2.126884   3.535739   3.702584
    44  H    4.637618   2.136505   2.032564   4.115833   3.631024
                   16         17         18         19         20
    16  N    0.000000
    17  O    2.560599   0.000000
    18  O    2.531092   4.561718   0.000000
    19  H    6.345045   8.716697   6.360831   0.000000
    20  H    5.699854   8.227958   5.106609   1.758905   0.000000
    21  H    5.996140   8.266497   6.042858   2.522216   2.480100
    22  H    5.204955   7.291511   5.921448   2.477203   3.069934
    23  H    4.592404   6.734374   5.289010   2.475751   3.068127
    24  H    5.123375   7.463031   5.004854   2.520856   2.478279
    25  H    4.250972   6.628953   3.749677   3.818148   2.663102
    26  H    4.145367   6.153870   4.610105   4.317265   3.825063
    27  H    2.749445   5.039787   3.119803   4.315116   3.815899
    28  H    3.484691   6.017690   2.652763   3.825537   2.668841
    29  H    2.721586   4.777993   4.088748   4.097042   3.996974
    30  H    5.478244   3.618326   7.550833  10.601260  10.542847
    31  H    5.565181   3.613553   7.917046  10.509770  10.564376
    32  H    4.810970   2.433799   6.878006  10.537430  10.296468
    33  H    5.557753   7.439992   3.586389   7.169126   5.537506
    34  H    4.640003   6.425447   2.280257   7.310959   5.718137
    35  H    5.186191   6.541676   3.398196   8.359534   6.831858
    36  H    4.879136   6.115717   4.226194   7.835418   6.620564
    37  H    3.899911   5.448459   3.914537   6.438000   5.479388
    38  H    5.148913   6.955347   4.294439   6.457325   5.200367
    39  H    2.119627   2.984213   4.531150   6.165969   6.096149
    40  H    2.130346   3.210357   4.178350   6.129759   6.002938
    41  H    2.099209   3.765350   3.241445   6.005968   5.324388
    42  H    3.959695   3.171210   6.308985   8.236572   8.356638
    43  H    1.047632   1.838140   2.834320   7.336967   6.624258
    44  H    1.037611   3.097997   1.935624   6.342039   5.557131
                   21         22         23         24         25
    21  H    0.000000
    22  H    1.758163   0.000000
    23  H    3.823951   2.668004   0.000000
    24  H    4.324128   3.825751   1.759048   0.000000
    25  H    2.469598   3.065870   4.052210   4.182496   0.000000
    26  H    2.492356   2.471197   4.201737   4.994295   1.766828
    27  H    5.000537   4.217669   2.478842   2.479650   3.815800
    28  H    4.189817   4.061860   3.072021   2.474949   2.639103
    29  H    3.734112   2.560753   2.572660   3.749297   3.047648
    30  H   10.748689   9.383577   8.216214   9.069797   9.566796
    31  H   10.353590   8.940304   8.238284   9.363540   9.366586
    32  H   10.282829   9.070802   8.321472   9.200140   8.902808
    33  H    6.009181   6.829497   7.294651   6.839792   3.766745
    34  H    6.632046   7.079813   6.923529   6.361037   4.215867
    35  H    7.180623   7.694116   8.019692   7.738352   4.782368
    36  H    6.078522   6.517858   7.559217   7.793195   4.032579
    37  H    4.663068   4.857363   6.058122   6.558145   2.831902
    38  H    4.593395   5.377747   6.649493   6.775784   2.708560
    39  H    5.839888   4.554370   4.181340   5.370400   4.893513
    40  H    6.443469   5.190897   3.828562   4.649879   5.363252
    41  H    4.845723   4.343162   4.888807   5.627303   3.146312
    42  H    8.443580   6.980252   5.864549   6.934475   7.569603
    43  H    6.795933   6.069906   5.629721   6.153276   4.925706
    44  H    6.275560   5.598935   4.602084   4.787860   4.407610
                   26         27         28         29         30
    26  H    0.000000
    27  H    4.346366   0.000000
    28  H    3.817489   1.752491   0.000000
    29  H    2.470886   2.518418   3.063739   0.000000
    30  H    9.008081   6.933078   8.439177   7.016748   0.000000
    31  H    8.499822   7.282136   8.708034   6.725377   1.785757
    32  H    8.256799   6.878662   8.146989   6.632096   1.782212
    33  H    4.977508   5.948554   4.545315   6.111360  10.836763
    34  H    5.428090   5.083011   3.947071   5.817491   9.641046
    35  H    5.608763   6.304936   5.281174   6.445882  10.022845
    36  H    4.094820   6.378361   5.544278   5.511733   9.709801
    37  H    2.416468   5.221694   4.580784   3.899261   8.865522
    38  H    3.122505   5.886850   4.738998   4.988667  10.405808
    39  H    4.105973   3.432094   4.555716   2.179089   4.971017
    40  H    5.112412   2.514265   4.079294   2.811379   4.546645
    41  H    2.515379   3.830122   3.859011   2.450393   6.982986
    42  H    6.925006   4.993612   6.569594   4.757270   2.505897
    43  H    4.727493   3.759252   4.377990   3.613241   5.198596
    44  H    4.688556   2.352605   3.061527   3.237974   5.745965
                   31         32         33         34         35
    31  H    0.000000
    32  H    1.782813   0.000000
    33  H   10.907356   9.863223   0.000000
    34  H    9.953736   8.783116   1.787834   0.000000
    35  H   10.117577   8.885600   1.781560   1.783557   0.000000
    36  H    9.360656   8.420251   2.977784   3.694398   2.527642
    37  H    8.402452   7.735395   3.705143   4.211007   3.729734
    38  H   10.076162   9.323757   2.519641   3.708528   3.187751
    39  H    4.564092   4.517066   7.182739   6.563827   6.978132
    40  H    4.784202   4.571904   7.397261   6.432048   7.229063
    41  H    6.591226   6.019326   4.816737   4.597615   4.637265
    42  H    2.516586   2.984392   9.514164   8.528188   9.054723
    43  H    5.251068   4.250432   5.688354   4.726506   4.990258
    44  H    6.126028   5.252050   5.367530   4.197238   5.043544
                   36         37         38         39         40
    36  H    0.000000
    37  H    1.772575   0.000000
    38  H    1.777125   1.769164   0.000000
    39  H    6.042320   4.635657   6.143148   0.000000
    40  H    6.895020   5.665414   6.921539   1.776474   0.000000
    41  H    3.395863   2.003290   3.550348   2.674387   3.720716
    42  H    8.478083   7.294959   8.817367   2.831889   2.496797
    43  H    4.682447   3.971244   5.312217   2.618917   2.836069
    44  H    5.232913   4.446364   5.421004   2.957997   2.335931
                   41         42         43         44
    41  H    0.000000
    42  H    5.305511   0.000000
    43  H    2.334773   4.100055   0.000000
    44  H    2.890923   4.384960   1.652448   0.000000
 Stoichiometry    C13H26N3O2(1+)
 Framework group  C1[X(C13H26N3O2)]
 Deg. of freedom   126
 Full point group                 C1      NOp   1
 Largest Abelian subgroup         C1      NOp   1
 Largest concise Abelian subgroup C1      NOp   1
                         Standard orientation:                         
 ---------------------------------------------------------------------
 Center     Atomic      Atomic             Coordinates (Angstroms)
 Number     Number       Type             X           Y           Z
 ---------------------------------------------------------------------
      1          6           0       -3.475280    0.059311    0.116053
      2          6           0        0.929314   -1.541056   -0.464963
      3          6           0        3.184621    2.836781   -0.225182
      4          6           0        2.933411    2.285367    1.184684
      5          6           0        1.891366    2.857898   -1.051196
      6          6           0        2.267611    0.899817    1.141931
      7          6           0        1.228183    1.470682   -1.101434
      8          6           0        0.959481    0.934284    0.321315
      9          6           0       -5.913677    0.403523    0.256337
     10          6           0        2.489543   -3.368843   -0.752730
     11          6           0        2.119799   -2.508234    1.526990
     12          6           0       -2.085054    0.735038    0.019979
     13          6           0        0.227281   -0.433168    0.367562
     14          7           0       -4.535076    0.877259    0.116657
     15          7           0        1.813824   -2.384609    0.102982
     16          7           0       -1.134343   -0.365732   -0.305603
     17          8           0       -3.510171   -1.168931    0.211097
     18          8           0        0.627782   -1.569323   -1.666748
     19          1           0        3.610555    3.844481   -0.165427
     20          1           0        3.931467    2.211449   -0.734609
     21          1           0        3.872798    2.218479    1.744787
     22          1           0        2.287734    2.979203    1.741919
     23          1           0        1.189744    3.583193   -0.613470
     24          1           0        2.093838    3.198750   -2.072602
     25          1           0        2.962469    0.180012    0.688914
     26          1           0        2.065245    0.554536    2.164178
     27          1           0        0.298484    1.533002   -1.684466
     28          1           0        1.876180    0.771204   -1.642466
     29          1           0        0.296962    1.650720    0.831199
     30          1           0       -6.500511    0.690770   -0.620565
     31          1           0       -6.370039    0.828001    1.155125
     32          1           0       -5.891503   -0.682629    0.338165
     33          1           0        3.569757   -3.312217   -0.585413
     34          1           0        2.262437   -3.153974   -1.794638
     35          1           0        2.144993   -4.378642   -0.503332
     36          1           0        1.886607   -3.525195    1.861798
     37          1           0        1.549076   -1.805919    2.130467
     38          1           0        3.185270   -2.322948    1.699780
     39          1           0       -1.821430    1.165127    0.989464
     40          1           0       -2.031210    1.517383   -0.739052
     41          1           0        0.032690   -0.717191    1.403546
     42          1           0       -4.384563    1.873062    0.015414
     43          1           0       -1.696342   -1.221188   -0.082254
     44          1           0       -0.912031   -0.450260   -1.315588
 ---------------------------------------------------------------------
 Rotational constants (GHZ):      0.4873514      0.2380146      0.1822367
 Standard basis: 6-31G(d) (6D, 7F)
 There are   322 symmetry adapted basis functions of A   symmetry.
 Integral buffers will be    131072 words long.
 Raffenetti 1 integral format.
 Two-electron integral symmetry is turned on.
   322 basis functions,   608 primitive gaussians,   322 cartesian basis functions
    70 alpha electrons       70 beta electrons
       nuclear repulsion energy      1452.2796874444 Hartrees.
 NAtoms=   44 NActive=   44 NUniq=   44 SFac= 1.00D+00 NAtFMM=   60 NAOKFM=F Big=F
 One-electron integrals computed using PRISM.
 NBasis=   322 RedAO= T  NBF=   322
 NBsUse=   322 1.00D-06 NBFU=   322
 Initial guess read from the checkpoint file:  frag40-conf0.chk
 B after Tr=     0.000000    0.000000    0.000000
         Rot=    1.000000    0.000000    0.000000    0.000000 Ang=   0.00 deg.
 Initial guess orbital symmetries:
       Occupied  (A) (A) (A) (A) (A) (A) (A) (A) (A) (A) (A) (A)
                 (A) (A) (A) (A) (A) (A) (A) (A) (A) (A) (A) (A)
                 (A) (A) (A) (A) (A) (A) (A) (A) (A) (A) (A) (A)
                 (A) (A) (A) (A) (A) (A) (A) (A) (A) (A) (A) (A)
                 (A) (A) (A) (A) (A) (A) (A) (A) (A) (A) (A) (A)
                 (A) (A) (A) (A) (A) (A) (A) (A) (A) (A)
       Virtual   (A) (A) (A) (A) (A) (A) (A) (A) (A) (A) (A) (A)
                 (A) (A) (A) (A) (A) (A) (A) (A) (A) (A) (A) (A)
                 (A) (A) (A) (A) (A) (A) (A) (A) (A) (A) (A) (A)
                 (A) (A) (A) (A) (A) (A) (A) (A) (A) (A) (A) (A)
                 (A) (A) (A) (A) (A) (A) (A) (A) (A) (A) (A) (A)
                 (A) (A) (A) (A) (A) (A) (A) (A) (A) (A) (A) (A)
                 (A) (A) (A) (A) (A) (A) (A) (A) (A) (A) (A) (A)
                 (A) (A) (A) (A) (A) (A) (A) (A) (A) (A) (A) (A)
                 (A) (A) (A) (A) (A) (A) (A) (A) (A) (A) (A) (A)
                 (A) (A) (A) (A) (A) (A) (A) (A) (A) (A) (A) (A)
                 (A) (A) (A) (A) (A) (A) (A) (A) (A) (A) (A) (A)
                 (A) (A) (A) (A) (A) (A) (A) (A) (A) (A) (A) (A)
                 (A) (A) (A) (A) (A) (A) (A) (A) (A) (A) (A) (A)
                 (A) (A) (A) (A) (A) (A) (A) (A) (A) (A) (A) (A)
                 (A) (A) (A) (A) (A) (A) (A) (A) (A) (A) (A) (A)
                 (A) (A) (A) (A) (A) (A) (A) (A) (A) (A) (A) (A)
                 (A) (A) (A) (A) (A) (A) (A) (A) (A) (A) (A) (A)
                 (A) (A) (A) (A) (A) (A) (A) (A) (A) (A) (A) (A)
                 (A) (A) (A) (A) (A) (A) (A) (A) (A) (A) (A) (A)
                 (A) (A) (A) (A) (A) (A) (A) (A) (A) (A) (A) (A)
                 (A) (A) (A) (A) (A) (A) (A) (A) (A) (A) (A) (A)
 Requested convergence on RMS density matrix=1.00D-08 within 128 cycles.
 Requested convergence on MAX density matrix=1.00D-06.
 Requested convergence on             energy=1.00D-06.
 No special actions if energy rises.
 SCF Done:  E(RHF) =  -820.321292234     A.U. after   13 cycles
             Convg  =    0.7848D-08             -V/T =  2.0024

 **********************************************************************

            Population analysis using the SCF density.

 **********************************************************************

 Orbital symmetries:
 BldTbl:  Degeneracy threshold= 1.00D-02
       Occupied  (A) (A) (A) (A) (A) (A) (A) (A) (A) (A) (A) (A)
                 (A) (A) (A) (A) (A) (A) (A) (A) (A) (A) (A) (A)
                 (A) (A) (A) (A) (A) (A) (A) (A) (A) (A) (A) (A)
                 (A) (A) (A) (A) (A) (A) (A) (A) (A) (A) (A) (A)
                 (A) (A) (A) (A) (A) (A) (A) (A) (A) (A) (A) (A)
                 (A) (A) (A) (A) (A) (A) (A) (A) (A) (A)
       Virtual   (A) (A) (A) (A) (A) (A) (A) (A) (A) (A) (A) (A)
                 (A) (A) (A) (A) (A) (A) (A) (A) (A) (A) (A) (A)
                 (A) (A) (A) (A) (A) (A) (A) (A) (A) (A) (A) (A)
                 (A) (A) (A) (A) (A) (A) (A) (A) (A) (A) (A) (A)
                 (A) (A) (A) (A) (A) (A) (A) (A) (A) (A) (A) (A)
                 (A) (A) (A) (A) (A) (A) (A) (A) (A) (A) (A) (A)
                 (A) (A) (A) (A) (A) (A) (A) (A) (A) (A) (A) (A)
                 (A) (A) (A) (A) (A) (A) (A) (A) (A) (A) (A) (A)
                 (A) (A) (A) (A) (A) (A) (A) (A) (A) (A) (A) (A)
                 (A) (A) (A) (A) (A) (A) (A) (A) (A) (A) (A) (A)
                 (A) (A) (A) (A) (A) (A) (A) (A) (A) (A) (A) (A)
                 (A) (A) (A) (A) (A) (A) (A) (A) (A) (A) (A) (A)
                 (A) (A) (A) (A) (A) (A) (A) (A) (A) (A) (A) (A)
                 (A) (A) (A) (A) (A) (A) (A) (A) (A) (A) (A) (A)
                 (A) (A) (A) (A) (A) (A) (A) (A) (A) (A) (A) (A)
                 (A) (A) (A) (A) (A) (A) (A) (A) (A) (A) (A) (A)
                 (A) (A) (A) (A) (A) (A) (A) (A) (A) (A) (A) (A)
                 (A) (A) (A) (A) (A) (A) (A) (A) (A) (A) (A) (A)
                 (A) (A) (A) (A) (A) (A) (A) (A) (A) (A) (A) (A)
                 (A) (A) (A) (A) (A) (A) (A) (A) (A) (A) (A) (A)
                 (A) (A) (A) (A) (A) (A) (A) (A) (A) (A) (A) (A)
 The electronic state is 1-A.
 Alpha  occ. eigenvalues --  -20.68406 -20.66701 -15.82944 -15.73977 -15.73461
 Alpha  occ. eigenvalues --  -11.51572 -11.50256 -11.46043 -11.45618 -11.39202
 Alpha  occ. eigenvalues --  -11.38444 -11.37824 -11.36791 -11.35003 -11.34771
 Alpha  occ. eigenvalues --  -11.32943 -11.32914 -11.32063  -1.54143  -1.52487
 Alpha  occ. eigenvalues --   -1.45035  -1.37890  -1.37750  -1.25365  -1.19136
 Alpha  occ. eigenvalues --   -1.14762  -1.12267  -1.09744  -1.09394  -1.06807
 Alpha  occ. eigenvalues --   -1.04124  -0.95855  -0.94813  -0.93526  -0.92456
 Alpha  occ. eigenvalues --   -0.90662  -0.86896  -0.85821  -0.82809  -0.81580
 Alpha  occ. eigenvalues --   -0.80555  -0.78452  -0.78233  -0.76334  -0.76103
 Alpha  occ. eigenvalues --   -0.74803  -0.73811  -0.72444  -0.71532  -0.71100
 Alpha  occ. eigenvalues --   -0.70635  -0.69688  -0.67838  -0.67401  -0.66858
 Alpha  occ. eigenvalues --   -0.66355  -0.66158  -0.65279  -0.64509  -0.63835
 Alpha  occ. eigenvalues --   -0.62916  -0.61326  -0.60098  -0.58418  -0.56864
 Alpha  occ. eigenvalues --   -0.56102  -0.55099  -0.54694  -0.53181  -0.50225
 Alpha virt. eigenvalues --    0.03208   0.03689   0.05892   0.08512   0.09246
 Alpha virt. eigenvalues --    0.11085   0.11766   0.13164   0.13735   0.14661
 Alpha virt. eigenvalues --    0.15569   0.16307   0.17290   0.18155   0.18516
 Alpha virt. eigenvalues --    0.18748   0.19788   0.20193   0.20628   0.20816
 Alpha virt. eigenvalues --    0.21409   0.21452   0.22130   0.22401   0.22574
 Alpha virt. eigenvalues --    0.22772   0.23221   0.23790   0.24137   0.24451
 Alpha virt. eigenvalues --    0.25626   0.26097   0.27332   0.29179   0.30009
 Alpha virt. eigenvalues --    0.30923   0.31857   0.32744   0.32956   0.34746
 Alpha virt. eigenvalues --    0.35427   0.36892   0.38099   0.41623   0.44219
 Alpha virt. eigenvalues --    0.49431   0.54790   0.55640   0.57658   0.57990
 Alpha virt. eigenvalues --    0.59422   0.61000   0.61481   0.61736   0.62489
 Alpha virt. eigenvalues --    0.63426   0.64070   0.65423   0.65842   0.67342
 Alpha virt. eigenvalues --    0.67650   0.71254   0.72804   0.73444   0.75461
 Alpha virt. eigenvalues --    0.77040   0.77896   0.77964   0.79267   0.79774
 Alpha virt. eigenvalues --    0.82120   0.82526   0.83380   0.83873   0.84176
 Alpha virt. eigenvalues --    0.85764   0.86688   0.87202   0.88335   0.88668
 Alpha virt. eigenvalues --    0.90315   0.90748   0.93128   0.93558   0.94078
 Alpha virt. eigenvalues --    0.95566   0.96009   0.97363   0.98233   0.98856
 Alpha virt. eigenvalues --    0.99236   1.00337   1.01201   1.02615   1.02633
 Alpha virt. eigenvalues --    1.03629   1.03940   1.04417   1.04771   1.05335
 Alpha virt. eigenvalues --    1.05678   1.06170   1.06740   1.07390   1.08286
 Alpha virt. eigenvalues --    1.08540   1.09604   1.10128   1.10491   1.12040
 Alpha virt. eigenvalues --    1.12226   1.12946   1.13890   1.14962   1.15564
 Alpha virt. eigenvalues --    1.15732   1.16639   1.18823   1.21692   1.22961
 Alpha virt. eigenvalues --    1.24668   1.24936   1.25873   1.28841   1.30558
 Alpha virt. eigenvalues --    1.32709   1.33365   1.37947   1.39887   1.42911
 Alpha virt. eigenvalues --    1.45727   1.46815   1.49450   1.50676   1.51771
 Alpha virt. eigenvalues --    1.53786   1.54448   1.56415   1.56774   1.58913
 Alpha virt. eigenvalues --    1.61534   1.62716   1.63293   1.65839   1.68391
 Alpha virt. eigenvalues --    1.71126   1.74067   1.75904   1.81957   1.83849
 Alpha virt. eigenvalues --    1.85735   1.86277   1.88021   1.89331   1.90227
 Alpha virt. eigenvalues --    1.92672   1.93937   1.95995   1.97336   1.98510
 Alpha virt. eigenvalues --    1.99798   2.02522   2.03714   2.05485   2.05722
 Alpha virt. eigenvalues --    2.07250   2.08415   2.09006   2.10295   2.10915
 Alpha virt. eigenvalues --    2.12477   2.12928   2.14416   2.16495   2.18185
 Alpha virt. eigenvalues --    2.19324   2.20249   2.21199   2.21651   2.23373
 Alpha virt. eigenvalues --    2.23853   2.25368   2.26186   2.27280   2.27889
 Alpha virt. eigenvalues --    2.29665   2.30462   2.31031   2.32735   2.36227
 Alpha virt. eigenvalues --    2.38813   2.41092   2.42062   2.45252   2.47792
 Alpha virt. eigenvalues --    2.48288   2.50505   2.51376   2.51414   2.53555
 Alpha virt. eigenvalues --    2.55174   2.56224   2.58341   2.59972   2.60903
 Alpha virt. eigenvalues --    2.61560   2.62596   2.63401   2.64086   2.66234
 Alpha virt. eigenvalues --    2.67081   2.72411   2.72498   2.77239   2.79710
 Alpha virt. eigenvalues --    2.81172   2.84062   2.85116   2.86102   2.87266
 Alpha virt. eigenvalues --    2.88725   2.92046   2.94346   2.95182   2.97750
 Alpha virt. eigenvalues --    2.99007   3.05860   3.09343   3.12065   3.18722
 Alpha virt. eigenvalues --    3.20730   3.26336   3.37518   3.42752   4.19508
 Alpha virt. eigenvalues --    4.27390   4.30826   4.35980   4.43172   4.48324
 Alpha virt. eigenvalues --    4.51065   4.53522   4.58696   4.59225   4.61463
 Alpha virt. eigenvalues --    4.65469   4.72169   4.78239   4.86045   4.89542
 Alpha virt. eigenvalues --    4.91187   5.00370
          Condensed to atoms (all electrons):
              1          2          3          4          5          6
     1  C    4.117827  -0.000149   0.000000   0.000000   0.000000   0.000001
     2  C   -0.000149   4.170587  -0.000012  -0.000011   0.000025  -0.001567
     3  C    0.000000  -0.000012   5.106884   0.336434   0.337488  -0.055654
     4  C    0.000000  -0.000011   0.336434   5.100394  -0.059057   0.332284
     5  C    0.000000   0.000025   0.337488  -0.059057   5.115250  -0.005178
     6  C    0.000001  -0.001567  -0.055654   0.332284  -0.005178   5.154925
     7  C    0.000011  -0.003353  -0.054348  -0.005058   0.322497  -0.048125
     8  C    0.000120  -0.039376  -0.005554  -0.047009  -0.045386   0.329052
     9  C   -0.024763   0.000000   0.000000   0.000000   0.000000   0.000000
    10  C    0.000000  -0.033040   0.000000  -0.000001   0.000000   0.000009
    11  C    0.000000  -0.027629  -0.000003  -0.000002   0.000001  -0.003329
    12  C    0.343532   0.004340   0.000001  -0.000003  -0.000043  -0.000015
    13  C    0.002500   0.338613  -0.000329   0.003758   0.004044  -0.049416
    14  N    0.345640   0.000001   0.000000   0.000000   0.000000   0.000000
    15  N    0.000001   0.347119   0.000003   0.000051  -0.000011  -0.001028
    16  N   -0.038092  -0.059809   0.000004  -0.000052  -0.000172   0.002672
    17  O    0.548365  -0.000069   0.000000   0.000000   0.000000   0.000000
    18  O   -0.000008   0.510658  -0.000001  -0.000003   0.000170   0.000088
    19  H    0.000000   0.000000   0.405990  -0.035866  -0.035861   0.004329
    20  H    0.000000  -0.000004   0.398036  -0.042522  -0.043176  -0.003193
    21  H    0.000000   0.000000  -0.033708   0.406164   0.004154  -0.038090
    22  H    0.000000  -0.000001  -0.041975   0.399101  -0.002536  -0.045121
    23  H    0.000000   0.000000  -0.042213  -0.002560   0.395275   0.000592
    24  H    0.000000   0.000000  -0.033461   0.004118   0.406926  -0.000303
    25  H    0.000000   0.003823  -0.002417  -0.034938   0.000189   0.393928
    26  H    0.000000  -0.000311   0.003924  -0.033197  -0.000333   0.403342
    27  H    0.000066  -0.001222   0.004049  -0.000299  -0.036220   0.003791
    28  H    0.000000   0.004615  -0.002285   0.000268  -0.035277  -0.002222
    29  H    0.000150   0.004102  -0.000135  -0.001845  -0.001970  -0.040760
    30  H    0.000667   0.000000   0.000000   0.000000   0.000000   0.000000
    31  H    0.000865   0.000000   0.000000   0.000000   0.000000   0.000000
    32  H   -0.001743   0.000000   0.000000   0.000000   0.000000   0.000000
    33  H    0.000000   0.002486   0.000000   0.000000   0.000000   0.000015
    34  H    0.000000  -0.004413   0.000000   0.000000   0.000000   0.000000
    35  H    0.000000  -0.000279   0.000000   0.000000   0.000000   0.000000
    36  H    0.000000   0.000361   0.000000   0.000000   0.000000   0.000096
    37  H    0.000000  -0.002651   0.000001  -0.000017   0.000000  -0.000892
    38  H    0.000000   0.001066   0.000000  -0.000030   0.000000   0.000181
    39  H   -0.025916  -0.000100   0.000001   0.000000  -0.000011  -0.000050
    40  H   -0.026745  -0.000129   0.000000   0.000000   0.000023   0.000004
    41  H   -0.000047  -0.030454   0.000002  -0.000039  -0.000045  -0.001212
    42  H   -0.025947   0.000000   0.000000   0.000000   0.000000   0.000000
    43  H   -0.011795  -0.001937   0.000000   0.000001   0.000000  -0.000029
    44  H   -0.000348  -0.010314   0.000002   0.000000   0.000020   0.000005
              7          8          9         10         11         12
     1  C    0.000011   0.000120  -0.024763   0.000000   0.000000   0.343532
     2  C   -0.003353  -0.039376   0.000000  -0.033040  -0.027629   0.004340
     3  C   -0.054348  -0.005554   0.000000   0.000000  -0.000003   0.000001
     4  C   -0.005058  -0.047009   0.000000  -0.000001  -0.000002  -0.000003
     5  C    0.322497  -0.045386   0.000000   0.000000   0.000001  -0.000043
     6  C   -0.048125   0.329052   0.000000   0.000009  -0.003329  -0.000015
     7  C    5.171771   0.322293   0.000000   0.000007  -0.000035  -0.000684
     8  C    0.322293   5.211068   0.000000  -0.000109   0.000532  -0.006770
     9  C    0.000000   0.000000   4.997479   0.000000   0.000000   0.003392
    10  C    0.000007  -0.000109   0.000000   5.013951  -0.045728   0.000001
    11  C   -0.000035   0.000532   0.000000  -0.045728   4.983219  -0.000001
    12  C   -0.000684  -0.006770   0.003392   0.000001  -0.000001   5.230460
    13  C   -0.056747   0.333205   0.000001   0.003171  -0.001568  -0.026722
    14  N    0.000000  -0.000004   0.155889   0.000000   0.000000  -0.104251
    15  N    0.000079  -0.000054   0.000000   0.190672   0.202629  -0.000046
    16  N   -0.000634  -0.052038  -0.000053  -0.000070   0.000282   0.152510
    17  O    0.000000  -0.000040  -0.002383   0.000000   0.000000  -0.083845
    18  O    0.002354  -0.003516   0.000000  -0.006018   0.001476   0.000545
    19  H    0.004236  -0.000143   0.000000   0.000000   0.000000   0.000000
    20  H   -0.002854   0.000091   0.000000   0.000000   0.000000   0.000000
    21  H   -0.000329   0.004341   0.000000   0.000000   0.000002   0.000000
    22  H    0.000535  -0.005048   0.000000   0.000000   0.000000  -0.000003
    23  H   -0.044073  -0.004973   0.000000   0.000000   0.000000  -0.000001
    24  H   -0.038143   0.004226   0.000000   0.000000   0.000000   0.000000
    25  H   -0.002252  -0.044374   0.000000  -0.000055  -0.001958  -0.000001
    26  H    0.003831  -0.044090   0.000000   0.000003  -0.001362  -0.000005
    27  H    0.401755  -0.045669   0.000000  -0.000001   0.000000  -0.000896
    28  H    0.395205  -0.038324   0.000000   0.000053   0.000002   0.000008
    29  H   -0.045098   0.402252   0.000000   0.000002   0.000007  -0.000039
    30  H    0.000000   0.000000   0.399467   0.000000   0.000000  -0.000085
    31  H    0.000000   0.000000   0.399733   0.000000   0.000000  -0.000082
    32  H    0.000000   0.000000   0.397228   0.000000   0.000000   0.000468
    33  H    0.000000   0.000012   0.000000   0.397661  -0.002635   0.000000
    34  H   -0.000002  -0.000011   0.000000   0.395206   0.002721   0.000000
    35  H    0.000000  -0.000003   0.000000   0.399491  -0.001485   0.000000
    36  H    0.000000  -0.000049   0.000000  -0.001477   0.400346   0.000000
    37  H    0.000002  -0.000557   0.000000   0.003242   0.396424   0.000003
    38  H    0.000005   0.000192   0.000000  -0.001499   0.400333   0.000000
    39  H    0.000180  -0.002383  -0.000103   0.000000   0.000000   0.389283
    40  H    0.000602  -0.000540  -0.000068   0.000000   0.000000   0.388961
    41  H    0.003362  -0.033501   0.000000  -0.000089  -0.002576  -0.000572
    42  H    0.000000   0.000001  -0.017373   0.000000   0.000000   0.001063
    43  H    0.000007   0.001563  -0.000029  -0.000005   0.000011  -0.034565
    44  H    0.002600  -0.001849   0.000000  -0.000013  -0.000052  -0.012830
             13         14         15         16         17         18
     1  C    0.002500   0.345640   0.000001  -0.038092   0.548365  -0.000008
     2  C    0.338613   0.000001   0.347119  -0.059809  -0.000069   0.510658
     3  C   -0.000329   0.000000   0.000003   0.000004   0.000000  -0.000001
     4  C    0.003758   0.000000   0.000051  -0.000052   0.000000  -0.000003
     5  C    0.004044   0.000000  -0.000011  -0.000172   0.000000   0.000170
     6  C   -0.049416   0.000000  -0.001028   0.002672   0.000000   0.000088
     7  C   -0.056747   0.000000   0.000079  -0.000634   0.000000   0.002354
     8  C    0.333205  -0.000004  -0.000054  -0.052038  -0.000040  -0.003516
     9  C    0.000001   0.155889   0.000000  -0.000053  -0.002383   0.000000
    10  C    0.003171   0.000000   0.190672  -0.000070   0.000000  -0.006018
    11  C   -0.001568   0.000000   0.202629   0.000282   0.000000   0.001476
    12  C   -0.026722  -0.104251  -0.000046   0.152510  -0.083845   0.000545
    13  C    5.249577  -0.000018  -0.088785   0.165927   0.000281  -0.085317
    14  N   -0.000018   7.255281   0.000000   0.000844  -0.079369   0.000000
    15  N   -0.088785   0.000000   7.343169  -0.000269   0.000000  -0.085108
    16  N    0.165927   0.000844  -0.000269   7.304548  -0.032214  -0.025095
    17  O    0.000281  -0.079369   0.000000  -0.032214   8.223457  -0.000001
    18  O   -0.085317   0.000000  -0.085108  -0.025095  -0.000001   8.299011
    19  H    0.000010   0.000000   0.000000   0.000000   0.000000   0.000000
    20  H   -0.000050   0.000000   0.000000   0.000000   0.000000  -0.000001
    21  H   -0.000074   0.000000   0.000000   0.000000   0.000000   0.000000
    22  H   -0.000154   0.000000  -0.000001   0.000000   0.000000   0.000000
    23  H   -0.000174   0.000000   0.000000   0.000012   0.000000  -0.000002
    24  H   -0.000079   0.000000   0.000000   0.000000   0.000000   0.000000
    25  H   -0.005868   0.000000   0.001532  -0.000055   0.000000  -0.000165
    26  H   -0.002811   0.000000   0.000192   0.000000   0.000000  -0.000006
    27  H   -0.002890  -0.000001  -0.000029  -0.000357   0.000000  -0.000137
    28  H   -0.004995   0.000000  -0.000504   0.000305   0.000000   0.001259
    29  H   -0.048603  -0.000002  -0.000108  -0.003218  -0.000001  -0.000139
    30  H    0.000000  -0.040098   0.000000   0.000002   0.000249   0.000000
    31  H    0.000000  -0.040962   0.000000   0.000000   0.000255   0.000000
    32  H    0.000000  -0.032169   0.000000   0.000003   0.005129   0.000000
    33  H   -0.000023   0.000000  -0.043659  -0.000001   0.000000   0.000391
    34  H    0.000482   0.000000  -0.028198  -0.000010   0.000000   0.006433
    35  H   -0.000148   0.000000  -0.044078   0.000007   0.000000   0.000475
    36  H   -0.000126   0.000000  -0.043994   0.000010   0.000000  -0.000002
    37  H    0.000033   0.000000  -0.035577   0.000148   0.000000   0.000031
    38  H   -0.000245   0.000000  -0.046036  -0.000010   0.000000  -0.000018
    39  H    0.001166  -0.000515  -0.000005  -0.035133   0.000871  -0.000026
    40  H    0.000010   0.003102   0.000000  -0.029808   0.001270   0.000027
    41  H    0.402477   0.000000   0.002866  -0.038196   0.000292   0.002097
    42  H   -0.000002   0.324791   0.000000   0.000074   0.001854   0.000000
    43  H   -0.016733   0.002029   0.000107   0.264673   0.054410   0.001719
    44  H   -0.021492   0.000029   0.001360   0.268440   0.000601   0.040882
             19         20         21         22         23         24
     1  C    0.000000   0.000000   0.000000   0.000000   0.000000   0.000000
     2  C    0.000000  -0.000004   0.000000  -0.000001   0.000000   0.000000
     3  C    0.405990   0.398036  -0.033708  -0.041975  -0.042213  -0.033461
     4  C   -0.035866  -0.042522   0.406164   0.399101  -0.002560   0.004118
     5  C   -0.035861  -0.043176   0.004154  -0.002536   0.395275   0.406926
     6  C    0.004329  -0.003193  -0.038090  -0.045121   0.000592  -0.000303
     7  C    0.004236  -0.002854  -0.000329   0.000535  -0.044073  -0.038143
     8  C   -0.000143   0.000091   0.004341  -0.005048  -0.004973   0.004226
     9  C    0.000000   0.000000   0.000000   0.000000   0.000000   0.000000
    10  C    0.000000   0.000000   0.000000   0.000000   0.000000   0.000000
    11  C    0.000000   0.000000   0.000002   0.000000   0.000000   0.000000
    12  C    0.000000   0.000000   0.000000  -0.000003  -0.000001   0.000000
    13  C    0.000010  -0.000050  -0.000074  -0.000154  -0.000174  -0.000079
    14  N    0.000000   0.000000   0.000000   0.000000   0.000000   0.000000
    15  N    0.000000   0.000000   0.000000  -0.000001   0.000000   0.000000
    16  N    0.000000   0.000000   0.000000   0.000000   0.000012   0.000000
    17  O    0.000000   0.000000   0.000000   0.000000   0.000000   0.000000
    18  O    0.000000  -0.000001   0.000000   0.000000  -0.000002   0.000000
    19  H    0.498005  -0.024669  -0.002154  -0.002994  -0.003087  -0.002107
    20  H   -0.024669   0.539846  -0.002839   0.004254   0.004369  -0.002872
    21  H   -0.002154  -0.002839   0.497907  -0.025050  -0.000079  -0.000074
    22  H   -0.002994   0.004254  -0.025050   0.545619   0.002688  -0.000077
    23  H   -0.003087   0.004369  -0.000079   0.002688   0.557767  -0.025691
    24  H   -0.002107  -0.002872  -0.000074  -0.000077  -0.025691   0.495854
    25  H   -0.000083   0.002728  -0.002965   0.004131   0.000078  -0.000035
    26  H   -0.000075  -0.000077  -0.002529  -0.002764  -0.000041   0.000010
    27  H   -0.000082  -0.000079   0.000011  -0.000040  -0.002559  -0.002762
    28  H   -0.000072   0.002547  -0.000030   0.000065   0.003880  -0.002745
    29  H   -0.000068   0.000108  -0.000065   0.003340   0.003341  -0.000070
    30  H    0.000000   0.000000   0.000000   0.000000   0.000000   0.000000
    31  H    0.000000   0.000000   0.000000   0.000000   0.000000   0.000000
    32  H    0.000000   0.000000   0.000000   0.000000   0.000000   0.000000
    33  H    0.000000   0.000000   0.000000   0.000000   0.000000   0.000000
    34  H    0.000000   0.000000   0.000000   0.000000   0.000000   0.000000
    35  H    0.000000   0.000000   0.000000   0.000000   0.000000   0.000000
    36  H    0.000000   0.000000   0.000000   0.000000   0.000000   0.000000
    37  H    0.000000   0.000000   0.000000  -0.000002   0.000000   0.000000
    38  H    0.000000   0.000000   0.000002   0.000000   0.000000   0.000000
    39  H    0.000000   0.000000   0.000000  -0.000005  -0.000009   0.000000
    40  H    0.000000   0.000000   0.000000   0.000000   0.000047  -0.000002
    41  H    0.000000   0.000000  -0.000003   0.000008  -0.000001   0.000001
    42  H    0.000000   0.000000   0.000000   0.000000   0.000000   0.000000
    43  H    0.000000   0.000000   0.000000   0.000000   0.000000   0.000000
    44  H    0.000000   0.000000   0.000000   0.000000  -0.000002   0.000000
             25         26         27         28         29         30
     1  C    0.000000   0.000000   0.000066   0.000000   0.000150   0.000667
     2  C    0.003823  -0.000311  -0.001222   0.004615   0.004102   0.000000
     3  C   -0.002417   0.003924   0.004049  -0.002285  -0.000135   0.000000
     4  C   -0.034938  -0.033197  -0.000299   0.000268  -0.001845   0.000000
     5  C    0.000189  -0.000333  -0.036220  -0.035277  -0.001970   0.000000
     6  C    0.393928   0.403342   0.003791  -0.002222  -0.040760   0.000000
     7  C   -0.002252   0.003831   0.401755   0.395205  -0.045098   0.000000
     8  C   -0.044374  -0.044090  -0.045669  -0.038324   0.402252   0.000000
     9  C    0.000000   0.000000   0.000000   0.000000   0.000000   0.399467
    10  C   -0.000055   0.000003  -0.000001   0.000053   0.000002   0.000000
    11  C   -0.001958  -0.001362   0.000000   0.000002   0.000007   0.000000
    12  C   -0.000001  -0.000005  -0.000896   0.000008  -0.000039  -0.000085
    13  C   -0.005868  -0.002811  -0.002890  -0.004995  -0.048603   0.000000
    14  N    0.000000   0.000000  -0.000001   0.000000  -0.000002  -0.040098
    15  N    0.001532   0.000192  -0.000029  -0.000504  -0.000108   0.000000
    16  N   -0.000055   0.000000  -0.000357   0.000305  -0.003218   0.000002
    17  O    0.000000   0.000000   0.000000   0.000000  -0.000001   0.000249
    18  O   -0.000165  -0.000006  -0.000137   0.001259  -0.000139   0.000000
    19  H   -0.000083  -0.000075  -0.000082  -0.000072  -0.000068   0.000000
    20  H    0.002728  -0.000077  -0.000079   0.002547   0.000108   0.000000
    21  H   -0.002965  -0.002529   0.000011  -0.000030  -0.000065   0.000000
    22  H    0.004131  -0.002764  -0.000040   0.000065   0.003340   0.000000
    23  H    0.000078  -0.000041  -0.002559   0.003880   0.003341   0.000000
    24  H   -0.000035   0.000010  -0.002762  -0.002745  -0.000070   0.000000
    25  H    0.529035  -0.027308  -0.000092   0.002567   0.004562   0.000000
    26  H   -0.027308   0.530401  -0.000084  -0.000077  -0.002682   0.000000
    27  H   -0.000092  -0.000084   0.562700  -0.025702  -0.002431   0.000000
    28  H    0.002567  -0.000077  -0.025702   0.491147   0.004188   0.000000
    29  H    0.004562  -0.002682  -0.002431   0.004188   0.549669   0.000000
    30  H    0.000000   0.000000   0.000000   0.000000   0.000000   0.483031
    31  H    0.000000   0.000000   0.000000   0.000000   0.000000  -0.030035
    32  H    0.000000   0.000000   0.000000   0.000000   0.000000  -0.020616
    33  H   -0.000047  -0.000001   0.000000   0.000007   0.000000   0.000000
    34  H   -0.000005   0.000000   0.000000   0.000029   0.000000   0.000000
    35  H    0.000006   0.000000   0.000000  -0.000001   0.000000   0.000000
    36  H    0.000131   0.000016   0.000000   0.000000   0.000001   0.000000
    37  H   -0.000731   0.000978   0.000000   0.000001   0.000019   0.000000
    38  H   -0.000756   0.000136   0.000000   0.000004  -0.000002   0.000000
    39  H   -0.000002   0.000007  -0.000063   0.000001   0.001235  -0.000002
    40  H    0.000000  -0.000001   0.001135  -0.000008  -0.000816   0.000000
    41  H    0.000084   0.001500  -0.000049  -0.000119  -0.003249   0.000000
    42  H    0.000000   0.000000   0.000000   0.000000   0.000000  -0.001099
    43  H   -0.000001   0.000000   0.000042  -0.000011  -0.000188   0.000001
    44  H    0.000002  -0.000004   0.000728  -0.000228  -0.000210   0.000000
             31         32         33         34         35         36
     1  C    0.000865  -0.001743   0.000000   0.000000   0.000000   0.000000
     2  C    0.000000   0.000000   0.002486  -0.004413  -0.000279   0.000361
     3  C    0.000000   0.000000   0.000000   0.000000   0.000000   0.000000
     4  C    0.000000   0.000000   0.000000   0.000000   0.000000   0.000000
     5  C    0.000000   0.000000   0.000000   0.000000   0.000000   0.000000
     6  C    0.000000   0.000000   0.000015   0.000000   0.000000   0.000096
     7  C    0.000000   0.000000   0.000000  -0.000002   0.000000   0.000000
     8  C    0.000000   0.000000   0.000012  -0.000011  -0.000003  -0.000049
     9  C    0.399733   0.397228   0.000000   0.000000   0.000000   0.000000
    10  C    0.000000   0.000000   0.397661   0.395206   0.399491  -0.001477
    11  C    0.000000   0.000000  -0.002635   0.002721  -0.001485   0.400346
    12  C   -0.000082   0.000468   0.000000   0.000000   0.000000   0.000000
    13  C    0.000000   0.000000  -0.000023   0.000482  -0.000148  -0.000126
    14  N   -0.040962  -0.032169   0.000000   0.000000   0.000000   0.000000
    15  N    0.000000   0.000000  -0.043659  -0.028198  -0.044078  -0.043994
    16  N    0.000000   0.000003  -0.000001  -0.000010   0.000007   0.000010
    17  O    0.000255   0.005129   0.000000   0.000000   0.000000   0.000000
    18  O    0.000000   0.000000   0.000391   0.006433   0.000475  -0.000002
    19  H    0.000000   0.000000   0.000000   0.000000   0.000000   0.000000
    20  H    0.000000   0.000000   0.000000   0.000000   0.000000   0.000000
    21  H    0.000000   0.000000   0.000000   0.000000   0.000000   0.000000
    22  H    0.000000   0.000000   0.000000   0.000000   0.000000   0.000000
    23  H    0.000000   0.000000   0.000000   0.000000   0.000000   0.000000
    24  H    0.000000   0.000000   0.000000   0.000000   0.000000   0.000000
    25  H    0.000000   0.000000  -0.000047  -0.000005   0.000006   0.000131
    26  H    0.000000   0.000000  -0.000001   0.000000   0.000000   0.000016
    27  H    0.000000   0.000000   0.000000   0.000000   0.000000   0.000000
    28  H    0.000000   0.000000   0.000007   0.000029  -0.000001   0.000000
    29  H    0.000000   0.000000   0.000000   0.000000   0.000000   0.000001
    30  H   -0.030035  -0.020616   0.000000   0.000000   0.000000   0.000000
    31  H    0.485473  -0.020944   0.000000   0.000000   0.000000   0.000000
    32  H   -0.020944   0.423892   0.000000   0.000000   0.000000   0.000000
    33  H    0.000000   0.000000   0.499582  -0.019468  -0.032884  -0.000955
    34  H    0.000000   0.000000  -0.019468   0.415752  -0.020330  -0.000039
    35  H    0.000000   0.000000  -0.032884  -0.020330   0.497785   0.003362
    36  H    0.000000   0.000000  -0.000955  -0.000039   0.003362   0.485504
    37  H    0.000000   0.000000  -0.000003  -0.000081  -0.000054  -0.023633
    38  H    0.000000   0.000000   0.003204  -0.000005  -0.000666  -0.032924
    39  H    0.000015  -0.000008   0.000000   0.000000   0.000000   0.000000
    40  H   -0.000001  -0.000008   0.000000   0.000000   0.000000   0.000000
    41  H    0.000000   0.000000  -0.000002  -0.000009   0.000000   0.000051
    42  H   -0.001096   0.002191   0.000000   0.000000   0.000000   0.000000
    43  H    0.000000  -0.000019   0.000000  -0.000001   0.000000   0.000000
    44  H    0.000000   0.000000   0.000000  -0.000008   0.000001   0.000002
             37         38         39         40         41         42
     1  C    0.000000   0.000000  -0.025916  -0.026745  -0.000047  -0.025947
     2  C   -0.002651   0.001066  -0.000100  -0.000129  -0.030454   0.000000
     3  C    0.000001   0.000000   0.000001   0.000000   0.000002   0.000000
     4  C   -0.000017  -0.000030   0.000000   0.000000  -0.000039   0.000000
     5  C    0.000000   0.000000  -0.000011   0.000023  -0.000045   0.000000
     6  C   -0.000892   0.000181  -0.000050   0.000004  -0.001212   0.000000
     7  C    0.000002   0.000005   0.000180   0.000602   0.003362   0.000000
     8  C   -0.000557   0.000192  -0.002383  -0.000540  -0.033501   0.000001
     9  C    0.000000   0.000000  -0.000103  -0.000068   0.000000  -0.017373
    10  C    0.003242  -0.001499   0.000000   0.000000  -0.000089   0.000000
    11  C    0.396424   0.400333   0.000000   0.000000  -0.002576   0.000000
    12  C    0.000003   0.000000   0.389283   0.388961  -0.000572   0.001063
    13  C    0.000033  -0.000245   0.001166   0.000010   0.402477  -0.000002
    14  N    0.000000   0.000000  -0.000515   0.003102   0.000000   0.324791
    15  N   -0.035577  -0.046036  -0.000005   0.000000   0.002866   0.000000
    16  N    0.000148  -0.000010  -0.035133  -0.029808  -0.038196   0.000074
    17  O    0.000000   0.000000   0.000871   0.001270   0.000292   0.001854
    18  O    0.000031  -0.000018  -0.000026   0.000027   0.002097   0.000000
    19  H    0.000000   0.000000   0.000000   0.000000   0.000000   0.000000
    20  H    0.000000   0.000000   0.000000   0.000000   0.000000   0.000000
    21  H    0.000000   0.000002   0.000000   0.000000  -0.000003   0.000000
    22  H   -0.000002   0.000000  -0.000005   0.000000   0.000008   0.000000
    23  H    0.000000   0.000000  -0.000009   0.000047  -0.000001   0.000000
    24  H    0.000000   0.000000   0.000000  -0.000002   0.000001   0.000000
    25  H   -0.000731  -0.000756  -0.000002   0.000000   0.000084   0.000000
    26  H    0.000978   0.000136   0.000007  -0.000001   0.001500   0.000000
    27  H    0.000000   0.000000  -0.000063   0.001135  -0.000049   0.000000
    28  H    0.000001   0.000004   0.000001  -0.000008  -0.000119   0.000000
    29  H    0.000019  -0.000002   0.001235  -0.000816  -0.003249   0.000000
    30  H    0.000000   0.000000  -0.000002   0.000000   0.000000  -0.001099
    31  H    0.000000   0.000000   0.000015  -0.000001   0.000000  -0.001096
    32  H    0.000000   0.000000  -0.000008  -0.000008   0.000000   0.002191
    33  H   -0.000003   0.003204   0.000000   0.000000  -0.000002   0.000000
    34  H   -0.000081  -0.000005   0.000000   0.000000  -0.000009   0.000000
    35  H   -0.000054  -0.000666   0.000000   0.000000   0.000000   0.000000
    36  H   -0.023633  -0.032924   0.000000   0.000000   0.000051   0.000000
    37  H    0.509010  -0.025083   0.000002   0.000000  -0.000313   0.000000
    38  H   -0.025083   0.492434   0.000000   0.000000   0.000081   0.000000
    39  H    0.000002   0.000000   0.421589  -0.016118   0.000637   0.000161
    40  H    0.000000   0.000000  -0.016118   0.419869   0.000086   0.000797
    41  H   -0.000313   0.000081   0.000637   0.000086   0.448823   0.000000
    42  H    0.000000   0.000000   0.000161   0.000797   0.000000   0.306520
    43  H   -0.000001   0.000000   0.001428   0.002449  -0.000791  -0.000058
    44  H   -0.000010   0.000001   0.001250  -0.001578   0.002743  -0.000004
             43         44
     1  C   -0.011795  -0.000348
     2  C   -0.001937  -0.010314
     3  C    0.000000   0.000002
     4  C    0.000001   0.000000
     5  C    0.000000   0.000020
     6  C   -0.000029   0.000005
     7  C    0.000007   0.002600
     8  C    0.001563  -0.001849
     9  C   -0.000029   0.000000
    10  C   -0.000005  -0.000013
    11  C    0.000011  -0.000052
    12  C   -0.034565  -0.012830
    13  C   -0.016733  -0.021492
    14  N    0.002029   0.000029
    15  N    0.000107   0.001360
    16  N    0.264673   0.268440
    17  O    0.054410   0.000601
    18  O    0.001719   0.040882
    19  H    0.000000   0.000000
    20  H    0.000000   0.000000
    21  H    0.000000   0.000000
    22  H    0.000000   0.000000
    23  H    0.000000  -0.000002
    24  H    0.000000   0.000000
    25  H   -0.000001   0.000002
    26  H    0.000000  -0.000004
    27  H    0.000042   0.000728
    28  H   -0.000011  -0.000228
    29  H   -0.000188  -0.000210
    30  H    0.000001   0.000000
    31  H    0.000000   0.000000
    32  H   -0.000019   0.000000
    33  H    0.000000   0.000000
    34  H   -0.000001  -0.000008
    35  H    0.000000   0.000001
    36  H    0.000000   0.000002
    37  H   -0.000001  -0.000010
    38  H    0.000000   0.000001
    39  H    0.001428   0.001250
    40  H    0.002449  -0.001578
    41  H   -0.000791   0.002743
    42  H   -0.000058  -0.000004
    43  H    0.242103  -0.004704
    44  H   -0.004704   0.239489
 Mulliken atomic charges:
              1
     1  C    0.795810
     2  C    0.829033
     3  C   -0.320722
     4  C   -0.320063
     5  C   -0.320783
     6  C   -0.329132
     7  C   -0.329600
     8  C   -0.187579
     9  C   -0.308418
    10  C   -0.315364
    11  C   -0.299623
    12  C   -0.243109
    13  C   -0.091887
    14  N   -0.790216
    15  N   -0.672292
    16  N   -0.845175
    17  O   -0.639112
    18  O   -0.662056
    19  H    0.194692
    20  H    0.170359
    21  H    0.195408
    22  H    0.166030
    23  H    0.157415
    24  H    0.197286
    25  H    0.181313
    26  H    0.173419
    27  H    0.147387
    28  H    0.206451
    29  H    0.178721
    30  H    0.208519
    31  H    0.206780
    32  H    0.246596
    33  H    0.196319
    34  H    0.251955
    35  H    0.198799
    36  H    0.213317
    37  H    0.179711
    38  H    0.209636
    39  H    0.262627
    40  H    0.257440
    41  H    0.246158
    42  H    0.408129
    43  H    0.500326
    44  H    0.495491
 Sum of Mulliken atomic charges =   1.00000
 Mulliken charges with hydrogens summed into heavy atoms:
              1
     1  C    0.795810
     2  C    0.829033
     3  C    0.044330
     4  C    0.041375
     5  C    0.033918
     6  C    0.025600
     7  C    0.024239
     8  C   -0.008857
     9  C    0.353477
    10  C    0.331710
    11  C    0.303042
    12  C    0.276958
    13  C    0.154271
    14  N   -0.382087
    15  N   -0.672292
    16  N    0.150642
    17  O   -0.639112
    18  O   -0.662056
 Sum of Mulliken charges with hydrogens summed into heavy atoms =   1.00000
 DipInt: DoE/N= T F RetVal/Mat= T F Init=T NMatP=  1 IDeriv=0 Min/MaxMlt=  0  4
 Entering OneElI...
 OneElI was handed    33286775 working-precision words.
 Multipole integrals L=0 to 4 MinM= 0 MaxM= 0.
 Requested accuracy = 0.1000D-12
 PrsmSu:  NPrtUS=   1 ThrOK=F IAlg=1 NPAlg=1 LenDen=           0.
 Prism:   IPart=     0 DynPar=F LinDyn=F Incr=          62.
 PRISM was handed    32798261 working-precision words and  6200 shell-pairs
 IPart=  0 NShTot=        6200 NBatch=          80 AvBLen=        77.5
 PrSmSu:  NxtVal=             63.
 Electronic moments (au):
       -140.00000000         -1.23562979          0.86325429          1.06577262
      -3947.23067418      -1812.52032521       -505.27274423        -16.07977309
          2.61992439         -3.74511701      15847.31181959        707.67114643
        -28.93133494      -6079.24796742      -2466.82826489      -1479.84033254
      -1202.79019956        152.00094808        444.60977095         -5.41568677
    -270460.21731884     -53758.63176244      -5183.92147847       4620.91699772
       5198.90844671        789.24145026        969.78984238      -1095.10372672
        271.07850460     -41330.58648967      -9459.82923997      -8108.56894932
      -1144.78971028        961.36769851         30.55873846
 Electronic spatial extent (au):  <R**2>=           6265.0237
 DipInt: DoE/N= F T RetVal/Mat= T F Init=T NMatP=  1 IDeriv=0 Min/MaxMlt=  0  4
 Nuclear    moments (au):
        141.00000000          0.00000000          0.00000000          0.00000000
       3902.71499486       1744.99084986        424.73031354          0.00000000
          0.00000000          0.00000000     -16113.26394539       -758.97529038
         38.62903036       6117.63524586       2529.39081360       1487.01415023
       1196.87401424       -155.26424079       -438.42634848         -2.90576208
     260496.96329704      47970.67419096       3468.21903719      -5494.65592290
      -5276.90541223      -1183.28485499       -983.03003254       1108.15841642
       -321.39731023      38429.42320627       6970.31267878       6803.37312393
       1174.36022692       -964.33929014        -82.17945139
 Total      moments (au):
          1.00000000         -1.23562979          0.86325429          1.06577262
        -44.51567932        -67.52947535        -80.54243070        -16.07977309
          2.61992439         -3.74511701       -265.95212580        -51.30414395
          9.69769542         38.38727844         62.56254871          7.17381769
         -5.91618532         -3.26329271          6.18342247         -8.32144885
      -9963.25402181      -5787.95757148      -1715.70244128       -873.73892518
        -77.99696552       -394.04340473        -13.24019016         13.05468970
        -50.31880564      -2901.16328341      -2489.51656119      -1305.19582539
         29.57051664         -2.97159163        -51.62071293
 Traceless Quadrup. (au):
         19.68018247         -3.33361356        -16.34656891        -16.07977309
          2.61992439         -3.74511701
 Charge=              1.0000 electrons
 Dipole moment (field-independent basis, Debye):
    X=             -3.1407    Y=              2.1942    Z=              2.7089  Tot=              4.6922
 Quadrupole moment (field-independent basis, Debye-Ang):
   XX=            -59.8751   YY=            -90.8295   ZZ=           -108.3323
   XY=            -21.6278   XZ=              3.5239   YZ=             -5.0373
 Traceless Quadrupole moment (field-independent basis, Debye-Ang):
   XX=             26.4705   YY=             -4.4838   ZZ=            -21.9867
   XY=            -21.6278   XZ=              3.5239   YZ=             -5.0373
 Octapole moment (field-independent basis, Debye-Ang**2):
  XXX=           -189.2945  YYY=            -36.5163  ZZZ=              6.9024  XYY=             27.3226
  XXY=             44.5296  XXZ=              5.1060  XZZ=             -4.2109  YZZ=             -2.3227
  YYZ=              4.4011  XYZ=             -5.9229
 Hexadecapole moment (field-independent basis, Debye-Ang**3):
 XXXX=          -3752.6390 YYYY=          -2180.0222 ZZZZ=           -646.2158 XXXY=           -329.0920
 XXXZ=            -29.3774 YYYX=           -148.4156 YYYZ=             -4.9869 ZZZX=              4.9170
 ZZZY=            -18.9525 XXYY=          -1092.7171 XXZZ=           -937.6713 YYZZ=           -491.5993
 XXYZ=             11.1377 YYXZ=             -1.1192 ZZXY=            -19.4428
 N-N= 1.452279687444D+03 E-N=-4.801520295527D+03  KE= 8.183803179248D+02
 Entering OneElI...
 OneElI was handed    33077985 working-precision words.
 Calculate electrostatic properties
    NBasis =   322  MinDer = 0  MaxDer = 0
    NGrid  =    44  NMatD  =   1
 Requested accuracy = 0.1000D-12
 PrsmSu:  NPrtUS=   2 ThrOK=T IAlg=1 NPAlg=1 LenDen=           0.
 Prism:   IPart=     0 DynPar=F LinDyn=F Incr=         512.
 PRISM was handed    16246470 working-precision words and  5467 shell-pairs
 PRISM was handed    16246470 working-precision words and  5467 shell-pairs
 IPart=  1 NShTot=      120076 NBatch=        2729 AvBLen=        44.0
 IPart=  0 NShTot=      120472 NBatch=        2738 AvBLen=        44.0
 PrSmSu:  NxtVal=           1025.
 --------------------------------------------------------
       Center         ----      EFG at Nuclei      ----
                      3XX-RR        3YY-RR        3ZZ-RR
 --------------------------------------------------------
     1   Atom        0.212049      0.308255     -0.520305
     2   Atom       -0.190338     -0.093497      0.283835
     3   Atom       -0.012726      0.036451     -0.023725
     4   Atom        0.023806     -0.051694      0.027888
     5   Atom        0.005181     -0.051969      0.046788
     6   Atom       -0.043674      0.053304     -0.009630
     7   Atom        0.004407      0.055668     -0.060074
     8   Atom        0.028501     -0.134057      0.105556
     9   Atom       -0.326877      0.161368      0.165509
    10   Atom        0.035774     -0.081865      0.046091
    11   Atom        0.140003      0.158279     -0.298283
    12   Atom       -0.103200     -0.082771      0.185972
    13   Atom       -0.312177      0.223187      0.088991
    14   Atom       -0.446455     -0.450934      0.897389
    15   Atom        0.293774      0.118686     -0.412460
    16   Atom       -0.113890     -0.005770      0.119660
    17   Atom        1.454793     -1.000322     -0.454470
    18   Atom        0.210636      0.741000     -0.951637
    19   Atom        0.082057     -0.223709      0.141652
    20   Atom       -0.052446      0.003606      0.048841
    21   Atom       -0.174524      0.140771      0.033753
    22   Atom       -0.007461     -0.028527      0.035988
    23   Atom       -0.035694     -0.041518      0.077213
    24   Atom        0.130307      0.103467     -0.233774
    25   Atom       -0.029436     -0.042213      0.071650
    26   Atom        0.125083      0.102518     -0.227601
    27   Atom       -0.175442      0.146307      0.029135
    28   Atom       -0.006304     -0.032428      0.038732
    29   Atom       -0.022499     -0.035169      0.057668
    30   Atom        0.012401      0.120104     -0.132505
    31   Atom        0.061533      0.082611     -0.144143
    32   Atom        0.131722     -0.285430      0.153708
    33   Atom       -0.276517      0.143187      0.133330
    34   Atom        0.134073      0.126261     -0.260334
    35   Atom        0.103813     -0.222995      0.119182
    36   Atom        0.132274     -0.223989      0.091715
    37   Atom        0.028294     -0.035098      0.006804
    38   Atom       -0.261594      0.140413      0.121180
    39   Atom        0.109703      0.079453     -0.189156
    40   Atom        0.137400     -0.076366     -0.061035
    41   Atom        0.117142      0.122785     -0.239927
    42   Atom        0.138863     -0.367532      0.228670
    43   Atom        0.044390     -0.159022      0.114632
    44   Atom        0.129102      0.148764     -0.277866
 --------------------------------------------------------
                        XY            XZ            YZ
 --------------------------------------------------------
     1   Atom        0.011383     -0.046244     -0.064078
     2   Atom       -0.340237      0.111426      0.106912
     3   Atom        0.003108     -0.009159      0.016423
     4   Atom       -0.037685      0.007857     -0.009894
     5   Atom       -0.025297     -0.001361     -0.007349
     6   Atom        0.013301     -0.052373      0.008455
     7   Atom       -0.012609     -0.006336      0.048598
     8   Atom       -0.082951      0.018699     -0.019763
     9   Atom       -0.184966      0.051542      0.013747
    10   Atom        0.157210      0.161460     -0.218992
    11   Atom        0.023829     -0.092902      0.039979
    12   Atom        0.247637      0.093407     -0.087684
    13   Atom        0.115348     -0.237623      0.003506
    14   Atom        0.060805      0.083104      0.119380
    15   Atom        0.678591     -0.157502     -0.052102
    16   Atom        0.180357     -0.061088     -0.066180
    17   Atom        0.041562     -0.113388      0.041038
    18   Atom       -0.929514     -0.372334      0.271613
    19   Atom       -0.155469     -0.012269     -0.021038
    20   Atom        0.167548      0.132639     -0.112989
    21   Atom        0.021752     -0.191097      0.017255
    22   Atom        0.157554      0.130302     -0.134919
    23   Atom        0.177455      0.110487     -0.113949
    24   Atom       -0.028683      0.073669      0.124691
    25   Atom        0.175339      0.108309     -0.118624
    26   Atom       -0.031609      0.074696      0.128341
    27   Atom        0.012814     -0.191203      0.018934
    28   Atom        0.163920      0.126715     -0.127437
    29   Atom        0.158753      0.120345     -0.125048
    30   Atom        0.053953     -0.184075      0.098782
    31   Atom        0.061818      0.148785     -0.144701
    32   Atom       -0.000523      0.001836      0.034121
    33   Atom       -0.019930     -0.065074     -0.016408
    34   Atom        0.024527     -0.078717      0.072947
    35   Atom       -0.122503      0.042251      0.086873
    36   Atom       -0.087420      0.024363      0.118194
    37   Atom        0.167508      0.123251     -0.156157
    38   Atom       -0.072923     -0.064033     -0.010561
    39   Atom       -0.029944     -0.093095     -0.152315
    40   Atom       -0.003414      0.022090      0.214482
    41   Atom       -0.015137      0.065612      0.108892
    42   Atom       -0.083436      0.014162      0.061045
    43   Atom       -0.144213      0.039136      0.072837
    44   Atom        0.001914      0.063488     -0.010506
 --------------------------------------------------------


 ---------------------------------------------------------------------------------
              Nuclear Quadrupole in Principal Axis System
 ---------------------------------------------------------------------------------

       Atom             a.u.   MegaHertz   Gauss  10(-4) cm-1        Axes

              Baa    -0.5280   -70.852   -25.282   -23.634  0.0610  0.0754  0.9953
     1 C(13)  Bbb     0.2126    28.531    10.181     9.517  0.9874 -0.1505 -0.0491
              Bcc     0.3154    42.321    15.101    14.117  0.1460  0.9857 -0.0837
 
              Baa    -0.5153   -69.155   -24.676   -23.068  0.7403  0.6451 -0.1895
     2 C(13)  Bbb     0.2012    27.004     9.636     9.008 -0.6651  0.7439 -0.0657
              Bcc     0.3141    42.150    15.040    14.060  0.0986  0.1747  0.9797
 
              Baa    -0.0326    -4.374    -1.561    -1.459  0.4367 -0.2267  0.8706
     3 C(13)  Bbb    -0.0081    -1.081    -0.386    -0.361  0.8995  0.0946 -0.4266
              Bcc     0.0407     5.455     1.947     1.820  0.0144  0.9694  0.2452
 
              Baa    -0.0677    -9.082    -3.241    -3.030  0.3753  0.9246  0.0649
     4 C(13)  Bbb     0.0215     2.885     1.029     0.962 -0.5068  0.1461  0.8496
              Bcc     0.0462     6.197     2.211     2.067  0.7761 -0.3517  0.5234
 
              Baa    -0.0621    -8.327    -2.971    -2.778  0.3525  0.9334  0.0674
     5 C(13)  Bbb     0.0147     1.975     0.705     0.659  0.9357 -0.3505 -0.0406
              Bcc     0.0473     6.352     2.267     2.119  0.0143 -0.0774  0.9969
 
              Baa    -0.0835   -11.209    -4.000    -3.739  0.8043 -0.1142  0.5831
     6 C(13)  Bbb     0.0284     3.809     1.359     1.270 -0.5832  0.0359  0.8115
              Bcc     0.0551     7.400     2.641     2.468  0.1136  0.9928  0.0377
 
              Baa    -0.0778   -10.441    -3.726    -3.483  0.0202 -0.3404  0.9401
     7 C(13)  Bbb     0.0017     0.228     0.081     0.076  0.9812  0.1872  0.0467
              Bcc     0.0761    10.213     3.644     3.407 -0.1919  0.9215  0.3378
 
              Baa    -0.1694   -22.726    -8.109    -7.581  0.3831  0.9228  0.0403
     8 C(13)  Bbb     0.0519     6.967     2.486     2.324  0.8456 -0.3328 -0.4174
              Bcc     0.1174    15.759     5.623     5.257  0.3718 -0.1940  0.9078
 
              Baa    -0.3941   -52.884   -18.870   -17.640  0.9438  0.3166 -0.0947
     9 C(13)  Bbb     0.1704    22.861     8.157     7.625  0.0695  0.0901  0.9935
              Bcc     0.2237    30.024    10.713    10.015 -0.3231  0.9443 -0.0631
 
              Baa    -0.3691   -49.529   -17.673   -16.521 -0.4836  0.6825  0.5480
    10 C(13)  Bbb     0.1443    19.364     6.910     6.459  0.7893  0.6107 -0.0640
              Bcc     0.2248    30.165    10.764    10.062  0.3784 -0.4016  0.8340
 
              Baa    -0.3212   -43.101   -15.379   -14.377  0.2012 -0.0913  0.9753
    11 C(13)  Bbb     0.1452    19.481     6.951     6.498  0.7178 -0.6638 -0.2102
              Bcc     0.1760    23.620     8.428     7.879  0.6666  0.7423 -0.0680
 
              Baa    -0.3703   -49.695   -17.733   -16.577  0.7035 -0.6743 -0.2244
    12 C(13)  Bbb     0.1548    20.777     7.414     6.930  0.6881  0.7253 -0.0219
              Bcc     0.2155    28.918    10.319     9.646  0.1775 -0.1390  0.9742
 
              Baa    -0.4396   -58.993   -21.050   -19.678  0.9001 -0.1588  0.4057
    13 C(13)  Bbb     0.1706    22.888     8.167     7.635 -0.2676  0.5332  0.8025
              Bcc     0.2691    36.105    12.883    12.043  0.3437  0.8310 -0.4374
 
              Baa    -0.5102   -19.677    -7.021    -6.563 -0.6744  0.7380 -0.0228
    14 N(14)  Bbb    -0.4034   -15.559    -5.552    -5.190  0.7355  0.6688 -0.1084
              Bcc     0.9136    35.235    12.573    11.753  0.0647  0.0898  0.9939
 
              Baa    -0.5228   -20.164    -7.195    -6.726  0.5882 -0.5761  0.5675
[...]
  899 Fit       0.077130
  900 Fit       0.074637
  901 Fit       0.092719
  902 Fit       0.083105
  903 Fit       0.076343
  904 Fit       0.074241
  905 Fit       0.090870
  906 Fit       0.082075
  907 Fit       0.078830
  908 Fit       0.079491
  909 Fit       0.085720
  910 Fit       0.085762
  911 Fit       0.085747
  912 Fit       0.081401
  913 Fit       0.079654
  914 Fit       0.088903
  915 Fit       0.079785
  916 Fit       0.077365
  917 Fit       0.077972
  918 Fit       0.094954
  919 Fit       0.085450
  920 Fit       0.080199
  921 Fit       0.077979
  922 Fit       0.079019
  923 Fit       0.095426
  924 Fit       0.085675
  925 Fit       0.083258
  926 Fit       0.090385
  927 Fit       0.090383
  928 Fit       0.083189
  929 Fit       0.089489
  930 Fit       0.100022
  931 Fit       0.081391
  932 Fit       0.085982
  933 Fit       0.094778
  934 Fit       0.107498
  935 Fit       0.085788
  936 Fit       0.092061
  937 Fit       0.103402
  938 Fit       0.104215
  939 Fit       0.089587
  940 Fit       0.091795
  941 Fit       0.101368
  942 Fit       0.119222
  943 Fit       0.084903
  944 Fit       0.089891
  945 Fit       0.100777
  946 Fit       0.119127
  947 Fit       0.085187
  948 Fit       0.093515
  949 Fit       0.108618
  950 Fit       0.080312
  951 Fit       0.080538
  952 Fit       0.080304
  953 Fit       0.077742
  954 Fit       0.077504
  955 Fit       0.079685
  956 Fit       0.085297
  957 Fit       0.094655
  958 Fit       0.085593
  959 Fit       0.079661
  960 Fit       0.078421
  961 Fit       0.081856
  962 Fit       0.088278
  963 Fit       0.088893
  964 Fit       0.084246
  965 Fit       0.082062
  966 Fit       0.099358
  967 Fit       0.097306
  968 Fit       0.103640
  969 Fit       0.099098
  970 Fit       0.103990
  971 Fit       0.103358
  972 Fit       0.098305
  973 Fit       0.097605
  974 Fit       0.104967
  975 Fit       0.114592
  976 Fit       0.116401
  977 Fit       0.106890
  978 Fit       0.098881
  979 Fit       0.116639
  980 Fit       0.129676
  981 Fit       0.105321
  982 Fit       0.115570
  983 Fit       0.132436
  984 Fit       0.102231
  985 Fit       0.110675
  986 Fit       0.103339
  987 Fit       0.096060
  988 Fit       0.101524
  989 Fit       0.090876
  990 Fit       0.089927
  991 Fit       0.085767
  992 Fit       0.080531
  993 Fit       0.084907
  994 Fit       0.128435
  995 Fit       0.125670
  996 Fit       0.119754
  997 Fit       0.134282
  998 Fit       0.126939
  999 Fit       0.098500
 1000 Fit       0.089306
 1001 Fit       0.085282
 1002 Fit       0.084285
 1003 Fit       0.100075
 1004 Fit       0.089897
 1005 Fit       0.084870
 1006 Fit       0.083059
 1007 Fit       0.083683
 1008 Fit       0.102672
 1009 Fit       0.101736
 1010 Fit       0.091890
 1011 Fit       0.086128
 1012 Fit       0.086277
 1013 Fit       0.092934
 1014 Fit       0.092048
 1015 Fit       0.091386
 1016 Fit       0.101090
 1017 Fit       0.099112
 1018 Fit       0.090874
 1019 Fit       0.086134
 1020 Fit       0.086757
 1021 Fit       0.092823
 1022 Fit       0.109787
 1023 Fit       0.097756
 1024 Fit       0.089398
 1025 Fit       0.085122
 1026 Fit       0.083939
 1027 Fit       0.085329
 1028 Fit       0.114806
 1029 Fit       0.098037
 1030 Fit       0.089709
 1031 Fit       0.086267
 1032 Fit       0.086116
 1033 Fit       0.083653
 1034 Fit       0.082745
 1035 Fit       0.080730
 1036 Fit       0.077456
 1037 Fit       0.080529
 1038 Fit       0.077417
 1039 Fit       0.071099
 1040 Fit       0.080657
 1041 Fit       0.076830
 1042 Fit       0.084062
 1043 Fit       0.082909
 1044 Fit       0.093347
 1045 Fit       0.101689
 1046 Fit       0.090730
 1047 Fit       0.089653
 1048 Fit       0.086892
 1049 Fit       0.092018
 1050 Fit       0.100172
 1051 Fit       0.084571
 1052 Fit       0.084318
 1053 Fit       0.083830
 1054 Fit       0.088033
 1055 Fit       0.094616
 1056 Fit       0.082288
 1057 Fit       0.083972
 1058 Fit       0.084665
 1059 Fit       0.082947
 1060 Fit       0.077105
 1061 Fit       0.080036
 1062 Fit       0.078277
 1063 Fit       0.075993
 1064 Fit       0.066794
 1065 Fit       0.074522
 1066 Fit       0.077249
 1067 Fit       0.073710
 1068 Fit       0.102399
 1069 Fit       0.093374
 1070 Fit       0.088959
 1071 Fit       0.088100
 1072 Fit       0.091738
 1073 Fit       0.094080
 1074 Fit       0.087443
 1075 Fit       0.083906
 1076 Fit       0.082506
 1077 Fit       0.083459
 1078 Fit       0.085145
 1079 Fit       0.082090
 1080 Fit       0.080539
 1081 Fit       0.081311
 1082 Fit       0.100685
 1083 Fit       0.104279
 1084 Fit       0.095431
 1085 Fit       0.093688
 1086 Fit       0.104024
 1087 Fit       0.095999
 1088 Fit       0.092426
 1089 Fit       0.091660
 1090 Fit       0.094226
 1091 Fit       0.110147
 1092 Fit       0.100117
 1093 Fit       0.096043
 1094 Fit       0.094597
 1095 Fit       0.094898
 1096 Fit       0.108939
 1097 Fit       0.113486
 1098 Fit       0.120267
 1099 Fit       0.116247
 1100 Fit       0.108455
 1101 Fit       0.123678
 1102 Fit       0.096111
 1103 Fit       0.102945
 1104 Fit       0.097303
 1105 Fit       0.094197
 1106 Fit       0.098637
 1107 Fit       0.106668
 1108 Fit       0.093124
 1109 Fit       0.096371
 1110 Fit       0.100341
 1111 Fit       0.097650
 1112 Fit       0.095590
 1113 Fit       0.106911
 1114 Fit       0.134186
 1115 Fit       0.143976
 1116 Fit       0.134519
 1117 Fit       0.131446
 1118 Fit       0.132023
 1119 Fit       0.136163
 1120 Fit       0.147788
 1121 Fit       0.137062
 1122 Fit       0.134984
 1123 Fit       0.138934
 1124 Fit       0.141558
 1125 Fit       0.134886
 1126 Fit       0.143360
 1127 Fit       0.130187
 1128 Fit       0.131216
 1129 Fit       0.138802
 1130 Fit       0.130682
 1131 Fit       0.129873
 1132 Fit       0.133441
 1133 Fit       0.134001
 1134 Fit       0.132642
 1135 Fit       0.137787
 1136 Fit       0.133464
 1137 Fit       0.130304
 1138 Fit       0.136032
 1139 Fit       0.130744
 1140 Fit       0.141623
 1141 Fit       0.132362
 1142 Fit       0.135925
 1143 Fit       0.124664
 1144 Fit       0.120032
 1145 Fit       0.144218
 1146 Fit       0.129839
 1147 Fit       0.122167
 1148 Fit       0.119290
 1149 Fit       0.137540
 1150 Fit       0.125233
 1151 Fit       0.119694
 1152 Fit       0.134899
 1153 Fit       0.121611
 1154 Fit       0.110408
 1155 Fit       0.138391
 1156 Fit       0.116233
 1157 Fit       0.103309
 1158 Fit       0.111121
 1159 Fit       0.129048
 1160 Fit       0.121336
 1161 Fit       0.100459
 1162 Fit       0.103801
 1163 Fit       0.112267
 1164 Fit       0.100742
 1165 Fit       0.117275
 1166 Fit       0.116563
 1167 Fit       0.107601
 1168 Fit       0.095263
 1169 Fit       0.076500
 1170 Fit       0.075686
 1171 Fit       0.071183
 1172 Fit       0.071284
 1173 Fit       0.073758
 1174 Fit       0.088295
 1175 Fit       0.081464
 1176 Fit       0.091936
 1177 Fit       0.078084
 1178 Fit       0.077686
 1179 Fit       0.076897
 1180 Fit       0.082093
 1181 Fit       0.078754
 1182 Fit       0.084820
 1183 Fit       0.094951
 1184 Fit       0.096362
 1185 Fit       0.097439
 1186 Fit       0.085180
 1187 Fit       0.092117
 1188 Fit       0.086504
 1189 Fit       0.086845
 1190 Fit       0.100580
 1191 Fit       0.090829
 1192 Fit       0.081865
 1193 Fit       0.084982
 1194 Fit       0.079835
 1195 Fit       0.102057
 1196 Fit       0.081789
 1197 Fit       0.079644
 1198 Fit       0.078873
 1199 Fit       0.103373
 1200 Fit       0.091640
 1201 Fit       0.079976
 1202 Fit       0.078864
 1203 Fit       0.110233
 1204 Fit       0.079937
 1205 Fit       0.082372
 1206 Fit       0.092884
 1207 Fit       0.087722
 1208 Fit       0.079119
 1209 Fit       0.079789
 1210 Fit       0.088768
 1211 Fit       0.078251
 1212 Fit       0.077032
 1213 Fit       0.077288
 1214 Fit       0.078944
 1215 Fit       0.076068
 1216 Fit       0.076200
 1217 Fit       0.077089
 1218 Fit       0.098404
 1219 Fit       0.095068
 1220 Fit       0.101552
 1221 Fit       0.096576
 1222 Fit       0.093318
 1223 Fit       0.105714
 1224 Fit       0.091225
 1225 Fit       0.113316
 1226 Fit       0.090388
 1227 Fit       0.122748
 1228 Fit       0.092053
 1229 Fit       0.135071
 1230 Fit       0.128476
 1231 Fit       0.104882
 1232 Fit       0.113645
 1233 Fit       0.104802
 1234 Fit       0.122691
 1235 Fit       0.111456
 1236 Fit       0.110640
 1237 Fit       0.129016
 1238 Fit       0.115364
 1239 Fit       0.117294
 1240 Fit       0.105685
 1241 Fit       0.098196
 1242 Fit       0.106109
 1243 Fit       0.110076
 1244 Fit       0.101776
 1245 Fit       0.096674
 1246 Fit       0.116183
 1247 Fit       0.088016
 1248 Fit       0.080423
 1249 Fit       0.092857
 1250 Fit       0.076011
 1251 Fit       0.070691
 1252 Fit       0.076427
 1253 Fit       0.093650
 1254 Fit       0.122090
 1255 Fit       0.065598
 1256 Fit       0.069706
 1257 Fit       0.084269
 1258 Fit       0.064844
 1259 Fit       0.064989
 1260 Fit       0.073755
 1261 Fit       0.093022
 1262 Fit       0.065275
 1263 Fit       0.069120
 1264 Fit       0.082932
 1265 Fit       0.076004
 1266 Fit       0.070745
 1267 Fit       0.075808
 1268 Fit       0.091703
 1269 Fit       0.082223
 1270 Fit       0.094926
 1271 Fit       0.096963
 1272 Fit       0.085585
 1273 Fit       0.079441
 1274 Fit       0.071893
 1275 Fit       0.072799
 1276 Fit       0.075163
 1277 Fit       0.098517
 1278 Fit       0.086726
 1279 Fit       0.072818
 1280 Fit       0.065577
 1281 Fit       0.066021
 1282 Fit       0.065256
 1283 Fit       0.069907
 1284 Fit       0.075586
 1285 Fit       0.071520
 1286 Fit       0.063404
 1287 Fit       0.063144
 1288 Fit       0.064729
 1289 Fit       0.073521
 1290 Fit       0.073962
 1291 Fit       0.077951
 1292 Fit       0.073178
 1293 Fit       0.070464
 1294 Fit       0.070395
 1295 Fit       0.072391
 1296 Fit       0.076691
 1297 Fit       0.084380
 1298 Fit       0.069265
 1299 Fit       0.069501
 1300 Fit       0.071618
 1301 Fit       0.075846
 1302 Fit       0.070284
 1303 Fit       0.071564
 1304 Fit       0.075653
 1305 Fit       0.076216
 1306 Fit       0.091477
 1307 Fit       0.081833
 1308 Fit       0.073783
 1309 Fit       0.071733
 1310 Fit       0.097888
 1311 Fit       0.086823
 1312 Fit       0.078783
 1313 Fit       0.074020
 1314 Fit       0.072536
 1315 Fit       0.086916
 1316 Fit       0.079018
 1317 Fit       0.076892
 1318 Fit       0.082856
 1319 Fit       0.083547
 1320 Fit       0.078981
 1321 Fit       0.077701
 1322 Fit       0.086011
 1323 Fit       0.076885
 1324 Fit       0.074688
 1325 Fit       0.075525
 1326 Fit       0.091453
 1327 Fit       0.082333
 1328 Fit       0.076604
 1329 Fit       0.074439
 1330 Fit       0.074829
 1331 Fit       0.090218
 1332 Fit       0.081574
 1333 Fit       0.078182
 1334 Fit       0.076161
 1335 Fit       0.093427
 1336 Fit       0.083591
 1337 Fit       0.088114
 1338 Fit       0.081359
 1339 Fit       0.086751
 1340 Fit       0.096199
 1341 Fit       0.078848
 1342 Fit       0.082921
 1343 Fit       0.090926
 1344 Fit       0.102360
 1345 Fit       0.113879
 1346 Fit       0.080659
 1347 Fit       0.085395
 1348 Fit       0.094051
 1349 Fit       0.107318
 1350 Fit       0.089381
 1351 Fit       0.090975
 1352 Fit       0.100242
 1353 Fit       0.117862
 1354 Fit       0.083459
 1355 Fit       0.086729
 1356 Fit       0.095324
 1357 Fit       0.110677
 1358 Fit       0.080896
 1359 Fit       0.084013
 1360 Fit       0.092099
 1361 Fit       0.106383
 1362 Fit       0.090658
 1363 Fit       0.075609
 1364 Fit       0.076100
 1365 Fit       0.078919
 1366 Fit       0.076864
 1367 Fit       0.074532
 1368 Fit       0.074443
 1369 Fit       0.076771
 1370 Fit       0.082155
 1371 Fit       0.090409
 1372 Fit       0.081372
 1373 Fit       0.076666
 1374 Fit       0.075580
 1375 Fit       0.078873
 1376 Fit       0.084554
 1377 Fit       0.084987
 1378 Fit       0.080794
 1379 Fit       0.078999
 1380 Fit       0.094191
 1381 Fit       0.100234
 1382 Fit       0.093888
 1383 Fit       0.098880
 1384 Fit       0.100440
 1385 Fit       0.099282
 1386 Fit       0.094811
 1387 Fit       0.094325
 1388 Fit       0.100676
 1389 Fit       0.108543
 1390 Fit       0.109632
 1391 Fit       0.101997
 1392 Fit       0.094580
 1393 Fit       0.110070
 1394 Fit       0.120673
 1395 Fit       0.100489
 1396 Fit       0.119400
 1397 Fit       0.107755
 1398 Fit       0.119953
 1399 Fit       0.127980
 1400 Fit       0.097322
 1401 Fit       0.103495
 1402 Fit       0.097217
 1403 Fit       0.092269
 1404 Fit       0.093081
 1405 Fit       0.085664
 1406 Fit       0.084439
 1407 Fit       0.082222
 1408 Fit       0.078065
 1409 Fit       0.082250
 1410 Fit       0.120543
 1411 Fit       0.127165
 1412 Fit       0.117203
 1413 Fit       0.131566
 1414 Fit       0.084069
 1415 Fit       0.096921
 1416 Fit       0.086877
 1417 Fit       0.081691
 1418 Fit       0.079404
 1419 Fit       0.079204
 1420 Fit       0.094754
 1421 Fit       0.085702
 1422 Fit       0.080954
 1423 Fit       0.079239
 1424 Fit       0.079939
 1425 Fit       0.098481
 1426 Fit       0.096795
 1427 Fit       0.087858
 1428 Fit       0.082624
 1429 Fit       0.083124
 1430 Fit       0.089696
 1431 Fit       0.088421
 1432 Fit       0.087790
 1433 Fit       0.096813
 1434 Fit       0.094470
 1435 Fit       0.086882
 1436 Fit       0.082614
 1437 Fit       0.083537
 1438 Fit       0.089544
 1439 Fit       0.102802
 1440 Fit       0.092517
 1441 Fit       0.085089
 1442 Fit       0.081112
 1443 Fit       0.079965
 1444 Fit       0.081228
 1445 Fit       0.109583
 1446 Fit       0.095233
 1447 Fit       0.086654
 1448 Fit       0.082124
 1449 Fit       0.080391
 1450 Fit       0.081536
 1451 Fit       0.082507
 1452 Fit       0.077822
 1453 Fit       0.075619
 1454 Fit       0.078969
 1455 Fit       0.075801
 1456 Fit       0.073380
 1457 Fit       0.075751
 1458 Fit       0.073114
 1459 Fit       0.077929
 1460 Fit       0.075113
 1461 Fit       0.092309
 1462 Fit       0.088383
 1463 Fit       0.085118
 1464 Fit       0.090748
 1465 Fit       0.099893
 1466 Fit       0.082146
 1467 Fit       0.082270
 1468 Fit       0.081287
 1469 Fit       0.085683
 1470 Fit       0.092749
 1471 Fit       0.079392
 1472 Fit       0.079148
 1473 Fit       0.079769
 1474 Fit       0.083747
 1475 Fit       0.078470
 1476 Fit       0.078574
 1477 Fit       0.079798
 1478 Fit       0.078524
 1479 Fit       0.073070
 1480 Fit       0.075147
 1481 Fit       0.074398
 1482 Fit       0.073009
 1483 Fit       0.066370
 1484 Fit       0.071258
 1485 Fit       0.073329
 1486 Fit       0.070867
 1487 Fit       0.092710
 1488 Fit       0.087765
 1489 Fit       0.086919
 1490 Fit       0.091006
 1491 Fit       0.084707
 1492 Fit       0.081400
 1493 Fit       0.080324
 1494 Fit       0.081695
 1495 Fit       0.084636
 1496 Fit       0.080243
 1497 Fit       0.077910
 1498 Fit       0.077398
 1499 Fit       0.079134
 1500 Fit       0.078062
 1501 Fit       0.076712
 1502 Fit       0.077667
 1503 Fit       0.091559
 1504 Fit       0.089923
 1505 Fit       0.099208
 1506 Fit       0.091451
 1507 Fit       0.087851
 1508 Fit       0.087204
 1509 Fit       0.089815
 1510 Fit       0.099054
 1511 Fit       0.092210
 1512 Fit       0.089030
 1513 Fit       0.087961
 1514 Fit       0.088831
 1515 Fit       0.103246
 1516 Fit       0.096173
 1517 Fit       0.093854
 1518 Fit       0.103854
 1519 Fit       0.107513
 1520 Fit       0.112850
 1521 Fit       0.109628
 1522 Fit       0.115043
 1523 Fit       0.092438
 1524 Fit       0.098935
 1525 Fit       0.089798
 1526 Fit       0.094185
 1527 Fit       0.102350
 1528 Fit       0.088861
 1529 Fit       0.090352
 1530 Fit       0.094189
 1531 Fit       0.090795
 1532 Fit       0.089264
 1533 Fit       0.094146
 1534 Fit       0.097730
 1535 Fit       0.094101
 1536 Fit       0.126976
 1537 Fit       0.135357
 1538 Fit       0.127101
 1539 Fit       0.124063
 1540 Fit       0.124451
 1541 Fit       0.128280
 1542 Fit       0.138033
 1543 Fit       0.128655
 1544 Fit       0.126291
 1545 Fit       0.128358
 1546 Fit       0.131341
 1547 Fit       0.133259
 1548 Fit       0.131228
 1549 Fit       0.136403
 1550 Fit       0.124804
 1551 Fit       0.128337
 1552 Fit       0.122598
 1553 Fit       0.127474
 1554 Fit       0.122140
 1555 Fit       0.125181
 1556 Fit       0.125840
 1557 Fit       0.125441
 1558 Fit       0.129498
 1559 Fit       0.125713
 1560 Fit       0.123217
 1561 Fit       0.126517
 1562 Fit       0.122280
 1563 Fit       0.126404
 1564 Fit       0.127722
 1565 Fit       0.117160
 1566 Fit       0.138531
 1567 Fit       0.123935
 1568 Fit       0.115791
 1569 Fit       0.112140
 1570 Fit       0.124282
 1571 Fit       0.115867
 1572 Fit       0.111942
 1573 Fit       0.129073
 1574 Fit       0.117491
 1575 Fit       0.112366
 1576 Fit       0.126828
 1577 Fit       0.116996
 1578 Fit       0.096691
 1579 Fit       0.115936
 1580 Fit       0.101557
 1581 Fit       0.117660
 1582 Fit       0.111272
 -----------------------------------------------------------------
 Leave Link  602 at Sat Feb 17 21:06:51 2018, MaxMem=   33554432 cpu:       1.1

 Test job not archived.
 1\1\GINC-NODE008\SP\RHF\6-31G(d)\C13H26N3O2(1+)\WULSDORT\17-Feb-2018\0
 \\#HF/6-31G* Geom=AllCheck Guess=Read Pop=(MK,ReadRadii) Integral=(Gri
 d=UltraFine) iop(6/33=2)\\Optimization for frag40-conf0\\1,1\C,0,6.447
 6878843,-1.7973765922,-0.6588701219\C,0,3.4720630213,-4.9951356121,-2.
 4530840134\C,0,-0.6792112775,-2.464938133,-1.631874092\C,0,-0.02546868
 88,-2.0109030472,-2.9438799884\C,0,0.3166140602,-2.4040753146,-0.46573
 45128\C,0,1.2512945768,-2.8120079792,-3.2487921404\C,0,1.5911927578,-3
 .2115072152,-0.7660810907\C,0,2.2534407491,-2.7325488886,-2.0761063313
 \C,0,8.3550846115,-0.5298725525,0.2572160993\C,0,3.0608343468,-7.11255
 57258,-3.5509687201\C,0,3.181106874,-5.0860753435,-4.9486079731\C,0,4.
 9076391141,-1.8787504783,-0.800977253\C,0,3.587024498,-3.4461829279,-2
 .4231810481\N,0,6.9245214004,-0.7811554664,0.0706024329\N,0,3.21994002
 31,-5.6532257818,-3.6019326272\N,0,4.6337903231,-3.2412363666,-1.33967
 08014\O,0,7.1227578227,-2.6478275904,-1.2418304362\O,0,3.6101491334,-5
 .556036972,-1.3565762363\H,0,-1.5551453,-1.8443312046,-1.4127019466\H,
 0,-1.0460638285,-3.4951215951,-1.7435688642\H,0,-0.7265582287,-2.11529
 70191,-3.7794704521\H,0,0.225359974,-0.9423457196,-2.8799291069\H,0,0.
 5854945329,-1.3557999205,-0.2688745508\H,0,-0.1440751027,-2.7845668387
 ,0.4526541199\H,0,0.9836327455,-3.8619367426,-3.4281735415\H,0,1.71427
 58596,-2.4344001212,-4.1697804359\H,0,2.2838917361,-3.1267349524,0.083
 1136005\H,0,1.3430970774,-4.276322783,-0.8467136426\H,0,2.5016623469,-
 1.6665119647,-1.9571698301\H,0,8.608056695,-0.5690616685,1.3203762009\
 H,0,8.6221159075,0.4515927134,-0.1448867462\H,0,8.9067993389,-1.303470
 4331,-0.2757676106\H,0,2.1330438318,-7.3930346189,-4.0594972869\H,0,3.
 0276712599,-7.4335335785,-2.5121274687\H,0,3.9028510126,-7.5973216915,
 -4.0575429889\H,0,3.9417139742,-5.5722759772,-5.5697123084\H,0,3.36902
 3759,-4.0147028429,-4.9468057691\H,0,2.1999210814,-5.2620051643,-5.402
 1920994\H,0,4.5683893893,-1.1304459215,-1.5216201629\H,0,4.3737991776,
 -1.7300731762,0.1392352539\H,0,4.0132514242,-3.0183956488,-3.332645938
 3\H,0,6.2707857,-0.151673678,0.5188326566\H,0,5.5777294099,-3.54181842
 15,-1.6804958381\H,0,4.377431899,-3.9402218321,-0.6169421279\\Version=
 AM64L-G09RevC.01\State=1-A\HF=-820.3212922\RMSD=7.848e-09\Dipole=0.720
 0995,1.6982508,-0.0725327\Quadrupole=-1.085083,1.222902,-0.1378189,13.
 1185793,10.9807842,17.8394158\PG=C01 [X(C13H26N3O2)]\\@


 ASKING DUMB QUESTIONS IS EASIER THAN CORECTING DUMB MISTAKES.
 Job cpu time:  0 days  0 hours  8 minutes 14.3 seconds.
 File lengths (MBytes):  RWF=     58 Int=      0 D2E=      0 Chk=      9 Scr=      1
 Normal termination of Gaussian 09 at Sat Feb 17 21:06:51 2018.
