 Entering Gaussian System, Link 0=g09
 Initial command:
 /home/fb_chem/chemsoft/lx24-amd64/Gaussian_09_C.01_NBO_3.1_64_istanbul-64/g09/l1.exe /local/2401511.1.parallel_long/Gau-27591.inp -scrdir=/local/2401511.1.parallel_long/
 Entering Link 1 = /home/fb_chem/chemsoft/lx24-amd64/Gaussian_09_C.01_NBO_3.1_64_istanbul-64/g09/l1.exe PID=     27592.
  
 Copyright (c) 1988,1990,1992,1993,1995,1998,2003,2009,2011,
            Gaussian, Inc.  All Rights Reserved.
  
 This is part of the Gaussian(R) 09 program.  It is based on
 the Gaussian(R) 03 system (copyright 2003, Gaussian, Inc.),
 the Gaussian(R) 98 system (copyright 1998, Gaussian, Inc.),
 the Gaussian(R) 94 system (copyright 1995, Gaussian, Inc.),
 the Gaussian 92(TM) system (copyright 1992, Gaussian, Inc.),
 the Gaussian 90(TM) system (copyright 1990, Gaussian, Inc.),
 the Gaussian 88(TM) system (copyright 1988, Gaussian, Inc.),
 the Gaussian 86(TM) system (copyright 1986, Carnegie Mellon
 University), and the Gaussian 82(TM) system (copyright 1983,
 Carnegie Mellon University). Gaussian is a federally registered
 trademark of Gaussian, Inc.
  
 This software contains proprietary and confidential information,
 including trade secrets, belonging to Gaussian, Inc.
  
 This software is provided under written license and may be
 used, copied, transmitted, or stored only in accord with that
 written license.
  
 The following legend is applicable only to US Government
 contracts under FAR:
  
                    RESTRICTED RIGHTS LEGEND
  
 Use, reproduction and disclosure by the US Government is
 subject to restrictions as set forth in subparagraphs (a)
 and (c) of the Commercial Computer Software - Restricted
 Rights clause in FAR 52.227-19.
  
 Gaussian, Inc.
 340 Quinnipiac St., Bldg. 40, Wallingford CT 06492
  
  
 ---------------------------------------------------------------
 Warning -- This program may not be used in any manner that
 competes with the business of Gaussian, Inc. or will provide
 assistance to any competitor of Gaussian, Inc.  The licensee
 of this program is prohibited from giving any competitor of
 Gaussian, Inc. access to this program.  By using this program,
 the user acknowledges that Gaussian, Inc. is engaged in the
 business of creating and licensing software in the field of
 computational chemistry and represents and warrants to the
 licensee that it is not a competitor of Gaussian, Inc. and that
 it will not use this program in any manner prohibited above.
 ---------------------------------------------------------------
  

 Cite this work as:
 Gaussian 09, Revision C.01,
 M. J. Frisch, G. W. Trucks, H. B. Schlegel, G. E. Scuseria, 
 M. A. Robb, J. R. Cheeseman, G. Scalmani, V. Barone, B. Mennucci, 
 G. A. Petersson, H. Nakatsuji, M. Caricato, X. Li, H. P. Hratchian, 
 A. F. Izmaylov, J. Bloino, G. Zheng, J. L. Sonnenberg, M. Hada, 
 M. Ehara, K. Toyota, R. Fukuda, J. Hasegawa, M. Ishida, T. Nakajima, 
 Y. Honda, O. Kitao, H. Nakai, T. Vreven, J. A. Montgomery, Jr., 
 J. E. Peralta, F. Ogliaro, M. Bearpark, J. J. Heyd, E. Brothers, 
 K. N. Kudin, V. N. Staroverov, T. Keith, R. Kobayashi, J. Normand, 
 K. Raghavachari, A. Rendell, J. C. Burant, S. S. Iyengar, J. Tomasi, 
 M. Cossi, N. Rega, J. M. Millam, M. Klene, J. E. Knox, J. B. Cross, 
 V. Bakken, C. Adamo, J. Jaramillo, R. Gomperts, R. E. Stratmann, 
 O. Yazyev, A. J. Austin, R. Cammi, C. Pomelli, J. W. Ochterski, 
 R. L. Martin, K. Morokuma, V. G. Zakrzewski, G. A. Voth, 
 P. Salvador, J. J. Dannenberg, S. Dapprich, A. D. Daniels, 
 O. Farkas, J. B. Foresman, J. V. Ortiz, J. Cioslowski, 
 and D. J. Fox, Gaussian, Inc., Wallingford CT, 2010.
 
 ******************************************
 Gaussian 09:  AM64L-G09RevC.01 23-Sep-2011
                18-Feb-2018 
 ******************************************
 %nprocs=2
 Will use up to    2 processors via shared memory.
 %chk=frag1-conf0.chk
 ----------------------------------------------------------------------
 #HF/6-31G* Geom=AllCheck Guess=Read Pop=(MK,ReadRadii) Integral=(Grid=
 UltraFine) iop(6/33=2)
 ----------------------------------------------------------------------
 1/29=7,38=1/1;
 2/12=2,40=1/2;
 3/5=1,6=6,7=1,11=9,14=-4,16=1,25=1,30=1,75=-5,116=-2/1,2,3;
 4/5=1/1;
 5/5=2,38=6/2;
 6/7=2,8=2,9=2,10=2,15=8,20=101,28=1,33=2/1,2;
 99/5=1,9=1/99;
 Structure from the checkpoint file:  frag1-conf0.chk
 ----------------------------
 Optimization for frag1-conf0
 ----------------------------
 Charge =  1 Multiplicity = 1
 Redundant internal coordinates found in file.
 C,0,-3.3131364076,-0.8370689313,0.433635391
 C,0,2.7476812452,0.6267430913,2.8105959261
 C,0,-4.5836078744,-0.7131481802,-0.3843984574
 C,0,-0.2246024721,-0.5017957143,0.8520077338
 C,0,-1.0534418927,-1.7707543476,0.5787749145
 C,0,0.9233065514,-0.7708944423,1.8257524401
 N,0,3.3181194585,1.8361877789,2.9450197255
 N,0,-2.2593514533,-1.4747926401,-0.1744849523
 N,0,1.5759940977,0.5023529002,2.1893532896
 N,0,3.3832175949,-0.4519709722,3.2886117613
 O,0,-3.2109641986,-0.4037930779,1.576965487
 H,0,-5.3514999502,-1.3584770507,0.055563699
 H,0,-4.9475187123,0.3155730664,-0.3200417285
 H,0,-4.4565619545,-0.9857465055,-1.4363361008
 H,0,-0.9079810873,0.2309431382,1.2946148478
 H,0,0.1663344816,-0.0940912422,-0.0874580085
 H,0,-0.4690528239,-2.5053516099,0.0159343266
 H,0,-1.3382626263,-2.2230862934,1.5370978242
 H,0,1.6793231248,-1.424969579,1.3754467497
 H,0,0.5359748159,-1.2532721655,2.7333081117
 H,0,2.9658743078,2.6411369235,2.4462035692
 H,0,4.0648896973,1.9947582603,3.6068377767
 H,0,-2.3822298291,-1.8870451882,-1.0877118902
 H,0,1.0284123967,1.343413717,2.0503676973
 H,0,4.3493029719,-0.4063463071,3.5806931289
 H,0,2.911791352,-1.3402946657,3.3787174335
 Recover connectivity data from disk.
                          Input orientation:                          
 ---------------------------------------------------------------------
 Center     Atomic      Atomic             Coordinates (Angstroms)
 Number     Number       Type             X           Y           Z
 ---------------------------------------------------------------------
      1          6           0       -3.313136   -0.837069    0.433635
      2          6           0        2.747681    0.626743    2.810596
      3          6           0       -4.583608   -0.713148   -0.384398
      4          6           0       -0.224602   -0.501796    0.852008
      5          6           0       -1.053442   -1.770754    0.578775
      6          6           0        0.923307   -0.770894    1.825752
      7          7           0        3.318119    1.836188    2.945020
      8          7           0       -2.259351   -1.474793   -0.174485
      9          7           0        1.575994    0.502353    2.189353
     10          7           0        3.383218   -0.451971    3.288612
     11          8           0       -3.210964   -0.403793    1.576965
     12          1           0       -5.351500   -1.358477    0.055564
     13          1           0       -4.947519    0.315573   -0.320042
     14          1           0       -4.456562   -0.985747   -1.436336
     15          1           0       -0.907981    0.230943    1.294615
     16          1           0        0.166334   -0.094091   -0.087458
     17          1           0       -0.469053   -2.505352    0.015934
     18          1           0       -1.338263   -2.223086    1.537098
     19          1           0        1.679323   -1.424970    1.375447
     20          1           0        0.535975   -1.253272    2.733308
     21          1           0        2.965874    2.641137    2.446204
     22          1           0        4.064890    1.994758    3.606838
     23          1           0       -2.382230   -1.887045   -1.087712
     24          1           0        1.028412    1.343414    2.050368
     25          1           0        4.349303   -0.406346    3.580693
     26          1           0        2.911791   -1.340295    3.378717
 ---------------------------------------------------------------------
                    Distance matrix (angstroms):
                    1          2          3          4          5
     1  C    0.000000
     2  C    6.672795   0.000000
     3  C    1.516124   8.108705   0.000000
     4  C    3.134723   3.734185   4.535890   0.000000
     5  C    2.449296   5.017724   3.808977   1.540093   0.000000
     6  C    4.459800   2.500330   5.934156   1.529146   2.542087
     7  N    7.578054   1.343959   8.945470   4.732626   6.141636
     8  N    1.373668   6.196575   2.454859   2.478026   1.452313
     9  N    5.364717   1.332016   6.785450   2.457429   3.830785
    10  N    7.289743   1.340160   8.776647   4.353836   5.363427
    11  O    1.226936   6.171653   2.413877   3.074658   2.742238
    12  H    2.137693   8.782257   1.095296   5.258641   4.349371
    13  H    2.137245   8.313472   1.093088   4.934342   4.508267
    14  H    2.196889   8.516905   1.094086   4.835308   4.032138
    15  H    2.768882   3.977276   4.149774   1.095360   2.130816
    16  H    3.595869   3.947362   4.799308   1.096198   2.177825
    17  H    3.323620   5.288433   4.505754   2.184722   1.094501
    18  H    2.653074   5.141815   4.062552   2.161580   1.097319
    19  H    5.114420   2.722236   6.544314   2.179718   2.867448
    20  H    4.503041   2.903804   6.018468   2.163905   2.726912
    21  H    7.454819   2.058682   8.732595   4.753801   6.253557
    22  H    8.516086   2.059249   9.902486   5.676408   7.038861
    23  H    2.069670   6.916063   2.592055   3.215087   2.134568
    24  H    5.120290   2.011827   6.453860   2.531978   4.024642
    25  H    8.294726   2.055606   9.778189   5.326861   6.329516
    26  H    6.904815   2.054004   8.410432   4.113916   4.873197
                    6          7          8          9         10
     6  C    0.000000
     7  N    3.712784   0.000000
     8  N    3.824361   7.197366   0.000000
     9  N    1.476267   2.320592   4.920032   0.000000
    10  N    2.879728   2.314728   6.699089   2.320595   0.000000
    11  O    4.157987   7.036904   2.262783   4.910304   6.812877
    12  H    6.546145   9.680761   3.102875   7.483710   9.357865
    13  H    6.344402   9.016300   3.233085   6.992008   9.111129
    14  H    6.295266   9.359768   2.580536   7.193872   9.169089
    15  H    2.153927   4.812543   2.625641   2.654120   4.780877
    16  H    2.165974   4.780758   2.792465   2.743493   4.676993
    17  H    2.867481   6.463063   2.074483   4.237010   5.455894
    18  H    2.703124   6.335759   2.082754   4.043062   5.338261
    19  H    1.096426   3.972954   4.232957   2.094682   2.740471
    20  H    1.098349   4.162921   4.039577   2.111811   3.009524
    21  H    4.024798   1.010365   7.149257   2.563618   3.232823
    22  H    4.548697   1.010353   8.144459   3.229727   2.559771
    23  H    4.545397   7.913240   1.009472   5.667091   7.379162
    24  H    2.128802   2.507187   4.868434   1.013186   3.209636
    25  H    3.866544   2.548800   7.675758   3.233079   1.010304
    26  H    2.586501   3.231600   6.275672   2.567935   1.009693
                   11         12         13         14         15
    11  O    0.000000
    12  H    2.794276   0.000000
    13  H    2.670533   1.762590   0.000000
    14  H    3.312125   1.779215   1.783419   0.000000
    15  H    2.405482   4.879177   4.351108   4.640135   0.000000
    16  H    3.777879   5.662652   5.135505   4.897519   1.780429
    17  H    3.790969   5.015494   5.303504   4.507607   3.052047
    18  H    2.611212   4.364466   4.787535   4.482868   2.503238
    19  H    4.999832   7.153949   7.058272   6.763736   3.072902
    20  H    4.012268   6.468674   6.469383   6.510217   2.521456
    21  H    6.941218   9.533666   8.699549   9.128031   4.705523
    22  H    7.925369  10.607739   9.973141  10.340800   5.760804
    23  H    3.160276   3.225373   3.467211   2.288391   3.512088
    24  H    4.609681   7.209906   6.510534   6.904132   2.357620
    25  H    7.821290  10.365263  10.107809  10.151332   5.768130
    26  H    6.450696   8.906496   8.842594   8.809261   4.626330
                   16         17         18         19         20
    16  H    0.000000
    17  H    2.495713   0.000000
    18  H    3.071744   1.774581   0.000000
    19  H    2.490073   2.762430   3.125531   0.000000
    20  H    3.071979   3.156248   2.425742   1.783399   0.000000
    21  H    4.662439   6.647652   6.558410   4.397153   4.599268
    22  H    5.762798   7.328179   7.160174   4.729120   4.875038
    23  H    3.272670   2.293596   2.844717   4.772513   4.849513
    24  H    2.716597   4.603728   4.310977   2.922867   2.729777
    25  H    5.572258   6.350581   6.310723   3.609640   3.997101
    26  H    4.594010   4.908745   4.715278   2.353559   2.463459
                   21         22         23         24         25
    21  H    0.000000
    22  H    1.724155   0.000000
    23  H    7.848262   8.869754   0.000000
    24  H    2.365276   3.473765   5.649415   0.000000
    25  H    3.533850   2.418032   8.324663   4.053624   0.000000
    26  H    4.089536   3.536135   6.947992   3.537502   1.726121
                   26
    26  H    0.000000
 Stoichiometry    C6H15N4O(1+)
 Framework group  C1[X(C6H15N4O)]
 Deg. of freedom    72
 Full point group                 C1      NOp   1
 Largest Abelian subgroup         C1      NOp   1
 Largest concise Abelian subgroup C1      NOp   1
                         Standard orientation:                         
 ---------------------------------------------------------------------
 Center     Atomic      Atomic             Coordinates (Angstroms)
 Number     Number       Type             X           Y           Z
 ---------------------------------------------------------------------
      1          6           0        3.274107   -0.318547    0.197687
      2          6           0       -3.395694   -0.259400    0.006761
      3          6           0        4.700523   -0.669932   -0.177143
      4          6           0        0.269742    0.247301   -0.495203
      5          6           0        1.396389    1.223847   -0.109313
      6          6           0       -1.074685    0.665599    0.101313
      7          7           0       -4.224225   -1.233909   -0.405664
      8          7           0        2.702294    0.719854   -0.496372
      9          7           0       -2.078972   -0.387123   -0.148784
     10          7           0       -3.912650    0.849280    0.554131
     11          8           0        2.648464   -0.911415    1.070871
     12          1           0        5.361896   -0.392930    0.650825
     13          1           0        4.776579   -1.752763   -0.305722
     14          1           0        5.050242   -0.173130   -1.087038
     15          1           0        0.552033   -0.732485   -0.095022
     16          1           0        0.190370    0.171123   -1.585866
     17          1           0        1.249454    2.197909   -0.586333
     18          1           0        1.383131    1.370852    0.978035
     19          1           0       -1.436425    1.596218   -0.351725
     20          1           0       -0.969916    0.818569    1.183900
     21          1           0       -3.893328   -1.995829   -0.980837
     22          1           0       -5.182903   -1.277773   -0.089711
     23          1           0        3.253552    1.242179   -1.161448
     24          1           0       -1.718945   -1.312960   -0.348163
     25          1           0       -4.901309    1.050203    0.500299
     26          1           0       -3.329565    1.512203    1.044055
 ---------------------------------------------------------------------
 Rotational constants (GHZ):      3.2545562      0.3305626      0.3163812
 Standard basis: 6-31G(d) (6D, 7F)
 There are   195 symmetry adapted basis functions of A   symmetry.
 Integral buffers will be    131072 words long.
 Raffenetti 1 integral format.
 Two-electron integral symmetry is turned on.
   195 basis functions,   368 primitive gaussians,   195 cartesian basis functions
    43 alpha electrons       43 beta electrons
       nuclear repulsion energy       620.5873412929 Hartrees.
 NAtoms=   26 NActive=   26 NUniq=   26 SFac= 1.00D+00 NAtFMM=   60 NAOKFM=F Big=F
 One-electron integrals computed using PRISM.
 NBasis=   195 RedAO= T  NBF=   195
 NBsUse=   195 1.00D-06 NBFU=   195
 Initial guess read from the checkpoint file:  frag1-conf0.chk
 B after Tr=     0.000000    0.000000    0.000000
         Rot=    1.000000    0.000000    0.000000    0.000000 Ang=   0.00 deg.
 Initial guess orbital symmetries:
       Occupied  (A) (A) (A) (A) (A) (A) (A) (A) (A) (A) (A) (A)
                 (A) (A) (A) (A) (A) (A) (A) (A) (A) (A) (A) (A)
                 (A) (A) (A) (A) (A) (A) (A) (A) (A) (A) (A) (A)
                 (A) (A) (A) (A) (A) (A) (A)
       Virtual   (A) (A) (A) (A) (A) (A) (A) (A) (A) (A) (A) (A)
                 (A) (A) (A) (A) (A) (A) (A) (A) (A) (A) (A) (A)
                 (A) (A) (A) (A) (A) (A) (A) (A) (A) (A) (A) (A)
                 (A) (A) (A) (A) (A) (A) (A) (A) (A) (A) (A) (A)
                 (A) (A) (A) (A) (A) (A) (A) (A) (A) (A) (A) (A)
                 (A) (A) (A) (A) (A) (A) (A) (A) (A) (A) (A) (A)
                 (A) (A) (A) (A) (A) (A) (A) (A) (A) (A) (A) (A)
                 (A) (A) (A) (A) (A) (A) (A) (A) (A) (A) (A) (A)
                 (A) (A) (A) (A) (A) (A) (A) (A) (A) (A) (A) (A)
                 (A) (A) (A) (A) (A) (A) (A) (A) (A) (A) (A) (A)
                 (A) (A) (A) (A) (A) (A) (A) (A) (A) (A) (A) (A)
                 (A) (A) (A) (A) (A) (A) (A) (A) (A) (A) (A) (A)
                 (A) (A) (A) (A) (A) (A) (A) (A)
 Requested convergence on RMS density matrix=1.00D-08 within 128 cycles.
 Requested convergence on MAX density matrix=1.00D-06.
 Requested convergence on             energy=1.00D-06.
 No special actions if energy rises.
 SCF Done:  E(RHF) =  -528.441130110     A.U. after   13 cycles
             Convg  =    0.4805D-08             -V/T =  2.0029

 **********************************************************************

            Population analysis using the SCF density.

 **********************************************************************

 Orbital symmetries:
 BldTbl:  Degeneracy threshold= 1.00D-02
       Occupied  (A) (A) (A) (A) (A) (A) (A) (A) (A) (A) (A) (A)
                 (A) (A) (A) (A) (A) (A) (A) (A) (A) (A) (A) (A)
                 (A) (A) (A) (A) (A) (A) (A) (A) (A) (A) (A) (A)
                 (A) (A) (A) (A) (A) (A) (A)
       Virtual   (A) (A) (A) (A) (A) (A) (A) (A) (A) (A) (A) (A)
                 (A) (A) (A) (A) (A) (A) (A) (A) (A) (A) (A) (A)
                 (A) (A) (A) (A) (A) (A) (A) (A) (A) (A) (A) (A)
                 (A) (A) (A) (A) (A) (A) (A) (A) (A) (A) (A) (A)
                 (A) (A) (A) (A) (A) (A) (A) (A) (A) (A) (A) (A)
                 (A) (A) (A) (A) (A) (A) (A) (A) (A) (A) (A) (A)
                 (A) (A) (A) (A) (A) (A) (A) (A) (A) (A) (A) (A)
                 (A) (A) (A) (A) (A) (A) (A) (A) (A) (A) (A) (A)
                 (A) (A) (A) (A) (A) (A) (A) (A) (A) (A) (A) (A)
                 (A) (A) (A) (A) (A) (A) (A) (A) (A) (A) (A) (A)
                 (A) (A) (A) (A) (A) (A) (A) (A) (A) (A) (A) (A)
                 (A) (A) (A) (A) (A) (A) (A) (A) (A) (A) (A) (A)
                 (A) (A) (A) (A) (A) (A) (A) (A)
 The electronic state is 1-A.
 Alpha  occ. eigenvalues --  -20.61248 -15.78745 -15.78465 -15.78304 -15.68486
 Alpha  occ. eigenvalues --  -11.59120 -11.44366 -11.42793 -11.38042 -11.35658
 Alpha  occ. eigenvalues --  -11.31735  -1.52775  -1.46518  -1.39251  -1.37925
 Alpha  occ. eigenvalues --   -1.32284  -1.19311  -1.10544  -1.06149  -1.02655
 Alpha  occ. eigenvalues --   -0.97788  -0.94886  -0.92489  -0.87787  -0.86175
 Alpha  occ. eigenvalues --   -0.85104  -0.81467  -0.80057  -0.76822  -0.75802
 Alpha  occ. eigenvalues --   -0.73728  -0.71289  -0.68448  -0.67598  -0.65370
 Alpha  occ. eigenvalues --   -0.64623  -0.63273  -0.62056  -0.61077  -0.58289
 Alpha  occ. eigenvalues --   -0.57568  -0.50688  -0.48480
 Alpha virt. eigenvalues --    0.01353   0.03152   0.07152   0.08438   0.09418
 Alpha virt. eigenvalues --    0.09926   0.11813   0.13050   0.14197   0.15772
 Alpha virt. eigenvalues --    0.18160   0.18726   0.20173   0.21326   0.22702
 Alpha virt. eigenvalues --    0.23879   0.24826   0.25803   0.26384   0.29380
 Alpha virt. eigenvalues --    0.31556   0.32546   0.34805   0.38580   0.40855
 Alpha virt. eigenvalues --    0.44074   0.51906   0.55794   0.57089   0.58885
 Alpha virt. eigenvalues --    0.59521   0.62438   0.63650   0.65378   0.66438
 Alpha virt. eigenvalues --    0.67663   0.68857   0.71158   0.71815   0.73530
 Alpha virt. eigenvalues --    0.76379   0.76969   0.78186   0.80426   0.81632
 Alpha virt. eigenvalues --    0.82999   0.86881   0.87299   0.89196   0.92346
 Alpha virt. eigenvalues --    0.94605   0.95586   0.97389   0.97766   0.98676
 Alpha virt. eigenvalues --    0.98845   1.00605   1.01202   1.02440   1.02871
 Alpha virt. eigenvalues --    1.03409   1.05796   1.07725   1.07984   1.08260
 Alpha virt. eigenvalues --    1.09546   1.10045   1.12395   1.12898   1.14178
 Alpha virt. eigenvalues --    1.16716   1.22135   1.24451   1.25630   1.29272
 Alpha virt. eigenvalues --    1.34998   1.37497   1.38324   1.42545   1.43943
 Alpha virt. eigenvalues --    1.45519   1.46867   1.50767   1.55056   1.58434
 Alpha virt. eigenvalues --    1.62706   1.66818   1.69617   1.71061   1.74765
 Alpha virt. eigenvalues --    1.77185   1.78491   1.85108   1.87114   1.91758
 Alpha virt. eigenvalues --    1.96156   1.97602   1.99575   2.03626   2.03843
 Alpha virt. eigenvalues --    2.07517   2.09015   2.09345   2.11929   2.13645
 Alpha virt. eigenvalues --    2.16286   2.17431   2.19118   2.22381   2.23990
 Alpha virt. eigenvalues --    2.26266   2.29550   2.32148   2.35765   2.39202
 Alpha virt. eigenvalues --    2.42623   2.44380   2.45756   2.48368   2.50759
 Alpha virt. eigenvalues --    2.54173   2.56639   2.60646   2.64068   2.65908
 Alpha virt. eigenvalues --    2.69501   2.71165   2.73753   2.75258   2.78892
 Alpha virt. eigenvalues --    2.81405   2.86721   2.89056   2.90754   2.95071
 Alpha virt. eigenvalues --    3.00278   3.15583   3.25624   3.27279   3.32931
 Alpha virt. eigenvalues --    3.41196   4.03408   4.09185   4.26218   4.28609
 Alpha virt. eigenvalues --    4.37329   4.44353   4.51880   4.54072   4.67997
 Alpha virt. eigenvalues --    4.80452   4.85054
          Condensed to atoms (all electrons):
              1          2          3          4          5          6
     1  C    4.186171   0.000000   0.358946  -0.004062  -0.032165   0.000044
     2  C    0.000000   3.827972   0.000000   0.002489  -0.000047  -0.031466
     3  C    0.358946   0.000000   5.240334  -0.000314   0.004874   0.000001
     4  C   -0.004062   0.002489  -0.000314   5.195042   0.337354   0.322800
     5  C   -0.032165  -0.000047   0.004874   0.337354   4.871697  -0.045996
     6  C    0.000044  -0.031466   0.000001   0.322800  -0.045996   5.020728
     7  N    0.000000   0.408193   0.000000  -0.000083   0.000000   0.001685
     8  N    0.268044   0.000000  -0.098401  -0.055663   0.218748   0.003449
     9  N   -0.000002   0.434744   0.000000  -0.040851   0.002350   0.151957
    10  N    0.000000   0.411198   0.000000   0.000154   0.000001  -0.004232
    11  O    0.572383   0.000000  -0.064760  -0.009790   0.009897   0.000001
    12  H   -0.026519   0.000000   0.379533  -0.000003  -0.000167   0.000000
    13  H   -0.029187   0.000000   0.382349   0.000020  -0.000100   0.000000
    14  H   -0.039152   0.000000   0.376940   0.000008   0.000078   0.000000
    15  H    0.001732   0.000014   0.000222   0.396316  -0.029204  -0.040098
    16  H    0.000535  -0.000175   0.000005   0.385642  -0.029323  -0.038269
    17  H    0.003494   0.000000  -0.000017  -0.043317   0.406527  -0.001580
    18  H   -0.000900   0.000001   0.000036  -0.055225   0.412957  -0.000651
    19  H   -0.000004  -0.001919   0.000000  -0.028106  -0.000756   0.400462
    20  H    0.000023  -0.001514   0.000000  -0.037961  -0.000086   0.407818
    21  H    0.000000  -0.021031   0.000000  -0.000016   0.000000   0.000008
    22  H    0.000000  -0.020105   0.000000   0.000001   0.000000  -0.000039
    23  H   -0.013445   0.000000   0.000981   0.002432  -0.023733  -0.000059
    24  H   -0.000003  -0.023793   0.000000  -0.001657   0.000006  -0.015480
    25  H    0.000000  -0.019956   0.000000   0.000001   0.000000   0.000045
    26  H    0.000000  -0.017995   0.000000  -0.000002   0.000001   0.002872
              7          8          9         10         11         12
     1  C    0.000000   0.268044  -0.000002   0.000000   0.572383  -0.026519
     2  C    0.408193   0.000000   0.434744   0.411198   0.000000   0.000000
     3  C    0.000000  -0.098401   0.000000   0.000000  -0.064760   0.379533
     4  C   -0.000083  -0.055663  -0.040851   0.000154  -0.009790  -0.000003
     5  C    0.000000   0.218748   0.002350   0.000001   0.009897  -0.000167
     6  C    0.001685   0.003449   0.151957  -0.004232   0.000001   0.000000
     7  N    7.027205   0.000000  -0.076830  -0.077695   0.000000   0.000000
     8  N    0.000000   7.330526  -0.000035   0.000000  -0.103253   0.000783
     9  N   -0.076830  -0.000035   7.195582  -0.073492   0.000002   0.000000
    10  N   -0.077695   0.000000  -0.073492   7.024218   0.000000   0.000000
    11  O    0.000000  -0.103253   0.000002   0.000000   8.203475   0.000065
    12  H    0.000000   0.000783   0.000000   0.000000   0.000065   0.461583
    13  H    0.000000   0.002516   0.000000   0.000000   0.000817  -0.017679
    14  H    0.000000   0.004451   0.000000   0.000000   0.002382  -0.021563
    15  H   -0.000008  -0.005975  -0.003277  -0.000007   0.011227   0.000000
    16  H   -0.000002   0.001608  -0.000570  -0.000003   0.000179   0.000000
    17  H    0.000000  -0.036296  -0.000056  -0.000001   0.000380   0.000003
    18  H    0.000000  -0.044703  -0.000092   0.000000   0.004949   0.000027
    19  H    0.000031  -0.000035  -0.045358   0.001620  -0.000005   0.000000
    20  H   -0.000017  -0.000075  -0.048185   0.000265   0.000078   0.000000
    21  H    0.321109   0.000000   0.000056   0.002359   0.000000   0.000000
    22  H    0.320334   0.000000   0.002359  -0.000025   0.000000   0.000000
    23  H    0.000000   0.322873   0.000001   0.000000   0.002280  -0.000048
    24  H   -0.000670  -0.000004   0.318488   0.002394  -0.000017   0.000000
    25  H   -0.000313   0.000000   0.002366   0.320377   0.000000   0.000000
    26  H    0.002199   0.000000  -0.002514   0.317333   0.000000   0.000000
             13         14         15         16         17         18
     1  C   -0.029187  -0.039152   0.001732   0.000535   0.003494  -0.000900
     2  C    0.000000   0.000000   0.000014  -0.000175   0.000000   0.000001
     3  C    0.382349   0.376940   0.000222   0.000005  -0.000017   0.000036
     4  C    0.000020   0.000008   0.396316   0.385642  -0.043317  -0.055225
     5  C   -0.000100   0.000078  -0.029204  -0.029323   0.406527   0.412957
     6  C    0.000000   0.000000  -0.040098  -0.038269  -0.001580  -0.000651
     7  N    0.000000   0.000000  -0.000008  -0.000002   0.000000   0.000000
     8  N    0.002516   0.004451  -0.005975   0.001608  -0.036296  -0.044703
     9  N    0.000000   0.000000  -0.003277  -0.000570  -0.000056  -0.000092
    10  N    0.000000   0.000000  -0.000007  -0.000003  -0.000001   0.000000
    11  O    0.000817   0.002382   0.011227   0.000179   0.000380   0.004949
    12  H   -0.017679  -0.021563   0.000000   0.000000   0.000003   0.000027
    13  H    0.460891  -0.021932  -0.000001  -0.000002   0.000001  -0.000012
    14  H   -0.021932   0.517684  -0.000019  -0.000002  -0.000022  -0.000001
    15  H   -0.000001  -0.000019   0.455078  -0.023500   0.003022  -0.002299
    16  H   -0.000002  -0.000002  -0.023500   0.509842  -0.002320   0.003425
    17  H    0.000001  -0.000022   0.003022  -0.002320   0.509706  -0.024137
    18  H   -0.000012  -0.000001  -0.002299   0.003425  -0.024137   0.497278
    19  H    0.000000   0.000000   0.003127  -0.003638   0.001082   0.000314
    20  H    0.000000   0.000000  -0.002494   0.003665   0.000214   0.002401
    21  H    0.000000   0.000000  -0.000001   0.000002   0.000000   0.000000
    22  H    0.000000   0.000000   0.000000   0.000000   0.000000   0.000000
    23  H   -0.000013   0.001319  -0.000015   0.000036  -0.003626   0.001822
    24  H    0.000000   0.000000   0.003241   0.000402   0.000004   0.000009
    25  H    0.000000   0.000000   0.000000   0.000000   0.000000   0.000000
    26  H    0.000000   0.000000   0.000000   0.000003   0.000000   0.000000
             19         20         21         22         23         24
     1  C   -0.000004   0.000023   0.000000   0.000000  -0.013445  -0.000003
     2  C   -0.001919  -0.001514  -0.021031  -0.020105   0.000000  -0.023793
     3  C    0.000000   0.000000   0.000000   0.000000   0.000981   0.000000
     4  C   -0.028106  -0.037961  -0.000016   0.000001   0.002432  -0.001657
     5  C   -0.000756  -0.000086   0.000000   0.000000  -0.023733   0.000006
     6  C    0.400462   0.407818   0.000008  -0.000039  -0.000059  -0.015480
     7  N    0.000031  -0.000017   0.321109   0.320334   0.000000  -0.000670
     8  N   -0.000035  -0.000075   0.000000   0.000000   0.322873  -0.000004
     9  N   -0.045358  -0.048185   0.000056   0.002359   0.000001   0.318488
    10  N    0.001620   0.000265   0.002359  -0.000025   0.000000   0.002394
    11  O   -0.000005   0.000078   0.000000   0.000000   0.002280  -0.000017
    12  H    0.000000   0.000000   0.000000   0.000000  -0.000048   0.000000
    13  H    0.000000   0.000000   0.000000   0.000000  -0.000013   0.000000
    14  H    0.000000   0.000000   0.000000   0.000000   0.001319   0.000000
    15  H    0.003127  -0.002494  -0.000001   0.000000  -0.000015   0.003241
    16  H   -0.003638   0.003665   0.000002   0.000000   0.000036   0.000402
    17  H    0.001082   0.000214   0.000000   0.000000  -0.003626   0.000004
    18  H    0.000314   0.002401   0.000000   0.000000   0.001822   0.000009
    19  H    0.499424  -0.034914  -0.000004  -0.000003   0.000002   0.002436
    20  H   -0.034914   0.495428   0.000007   0.000006  -0.000001   0.001025
    21  H   -0.000004   0.000007   0.261168  -0.008932   0.000000   0.001996
    22  H   -0.000003   0.000006  -0.008932   0.262755   0.000000  -0.000025
    23  H    0.000002  -0.000001   0.000000   0.000000   0.308042   0.000000
    24  H    0.002436   0.001025   0.001996  -0.000025   0.000000   0.279047
    25  H    0.000087  -0.000041  -0.000031   0.001491   0.000000  -0.000052
    26  H   -0.000435   0.000828  -0.000047  -0.000021   0.000000  -0.000032
             25         26
     1  C    0.000000   0.000000
     2  C   -0.019956  -0.017995
     3  C    0.000000   0.000000
     4  C    0.000001  -0.000002
     5  C    0.000000   0.000001
     6  C    0.000045   0.002872
     7  N   -0.000313   0.002199
     8  N    0.000000   0.000000
     9  N    0.002366  -0.002514
    10  N    0.320377   0.317333
    11  O    0.000000   0.000000
    12  H    0.000000   0.000000
    13  H    0.000000   0.000000
    14  H    0.000000   0.000000
    15  H    0.000000   0.000000
    16  H    0.000000   0.000003
    17  H    0.000000   0.000000
    18  H    0.000000   0.000000
    19  H    0.000087  -0.000435
    20  H   -0.000041   0.000828
    21  H   -0.000031  -0.000047
    22  H    0.001491  -0.000021
    23  H    0.000000   0.000000
    24  H   -0.000052  -0.000032
    25  H    0.261123  -0.009178
    26  H   -0.009178   0.253371
 Mulliken atomic charges:
              1
     1  C    0.754066
     2  C    1.053389
     3  C   -0.580727
     4  C   -0.365208
     5  C   -0.102913
     6  C   -0.134000
     7  N   -0.925137
     8  N   -0.808557
     9  N   -0.816645
    10  N   -0.924463
    11  O   -0.630289
    12  H    0.223986
    13  H    0.222332
    14  H    0.179827
    15  H    0.232918
    16  H    0.192460
    17  H    0.186938
    18  H    0.204802
    19  H    0.206592
    20  H    0.213530
    21  H    0.443357
    22  H    0.442204
    23  H    0.401154
    24  H    0.432685
    25  H    0.444082
    26  H    0.453616
 Sum of Mulliken atomic charges =   1.00000
 Mulliken charges with hydrogens summed into heavy atoms:
              1
     1  C    0.754066
     2  C    1.053389
     3  C    0.045418
     4  C    0.060170
     5  C    0.288827
     6  C    0.286122
     7  N   -0.039576
     8  N   -0.407403
     9  N   -0.383960
    10  N   -0.026765
    11  O   -0.630289
 Sum of Mulliken charges with hydrogens summed into heavy atoms =   1.00000
 DipInt: DoE/N= T F RetVal/Mat= T F Init=T NMatP=  1 IDeriv=0 Min/MaxMlt=  0  4
 Entering OneElI...
 OneElI was handed    33454240 working-precision words.
 Multipole integrals L=0 to 4 MinM= 0 MaxM= 0.
 Requested accuracy = 0.1000D-12
 PrsmSu:  NPrtUS=   1 ThrOK=F IAlg=1 NPAlg=1 LenDen=           0.
 Prism:   IPart=     0 DynPar=F LinDyn=F Incr=          23.
 PRISM was handed    33260530 working-precision words and  2305 shell-pairs
 IPart=  0 NShTot=        2305 NBatch=          52 AvBLen=        44.3
 PrSmSu:  NxtVal=             24.
 Electronic moments (au):
        -86.00000000         -4.75800643          0.54871980         -0.95495457
      -2949.46622337       -285.59476397       -146.76883462          7.25569719
         -7.22810176          4.92811256         -9.81881666        -38.59790318
        -36.46575684        154.90030757       1711.71537809        -56.80033740
       -164.23518344         19.30179229          9.82068815        481.10419120
    -170415.77160950      -2315.23905909       -810.72692708       3231.41786580
       1355.13129400       -586.50976193        -33.29300448       -139.50279167
         79.70701833     -10388.40312430      -4719.47146400       -540.09148308
      -1230.15440049       -196.11699974        248.68902060
 Electronic spatial extent (au):  <R**2>=           3381.8298
 DipInt: DoE/N= F T RetVal/Mat= T F Init=T NMatP=  1 IDeriv=0 Min/MaxMlt=  0  4
 Nuclear    moments (au):
         87.00000000          0.00000000          0.00000000          0.00000000
       2961.32207463        245.57756351         97.17505369          0.00000000
          0.00000000          0.00000000       -310.17713077         28.64993651
         33.63957635       -210.10820118      -1730.95182376         41.12878102
        150.91893395        -11.37836747        -21.50848955       -505.22375510
     165723.00553882       1495.55231224        345.71193132      -2947.76853020
      -1635.18131393        691.47973406         90.45538293        110.79211300
        -59.86936246       9008.41802836       2985.18654796        334.86085860
       1415.79659024        177.82993070       -194.54002293
 Total      moments (au):
          1.00000000         -4.75800643          0.54871980         -0.95495457
         11.85585126        -40.01720046        -49.59378094          7.25569719
         -7.22810176          4.92811256       -319.99594743         -9.94796667
         -2.82618049        -55.20789361        -19.23644567        -15.67155638
        -13.31624949          7.92342482        -11.68780140        -24.11956391
      -4692.76607068       -819.68674685       -465.01499576        283.64933560
       -280.05001993        104.96997212         57.16237845        -28.71067867
         19.83765586      -1379.98509594      -1734.28491604       -205.23062448
        185.64218975        -18.28706904         54.14899767
 Traceless Quadrup. (au):
         37.77422797        -14.09882374        -23.67540423          7.25569719
         -7.22810176          4.92811256
 Charge=              1.0000 electrons
 Dipole moment (field-independent basis, Debye):
    X=            -12.0936    Y=              1.3947    Z=             -2.4273  Tot=             12.4134
 Quadrupole moment (field-independent basis, Debye-Ang):
   XX=             15.9465   YY=            -53.8245   ZZ=            -66.7053
   XY=              9.7592   XZ=             -9.7220   YZ=              6.6285
 Traceless Quadrupole moment (field-independent basis, Debye-Ang):
   XX=             50.8076   YY=            -18.9634   ZZ=            -31.8442
   XY=              9.7592   XZ=             -9.7220   YZ=              6.6285
 Octapole moment (field-independent basis, Debye-Ang**2):
  XXX=           -227.7608  YYY=             -7.0806  ZZZ=             -2.0116  XYY=            -39.2948
  XXY=            -13.6918  XXZ=            -11.1544  XZZ=             -9.4780  YZZ=              5.6396
  YYZ=             -8.3189  XYZ=            -17.1674
 Hexadecapole moment (field-independent basis, Debye-Ang**3):
 XXXX=          -1767.5206 YYYY=           -308.7333 ZZZZ=           -175.1469 XXXY=            106.8359
 XXXZ=           -105.4803 YYYX=             39.5367 YYYZ=             21.5301 ZZZX=            -10.8138
 ZZZY=              7.4718 XXYY=           -519.7685 XXZZ=           -653.2148 YYZZ=            -77.2997
 XXYZ=             69.9217 YYXZ=             -6.8878 ZZXY=             20.3951
 N-N= 6.205873412929D+02 E-N=-2.464291095820D+03  KE= 5.269389046875D+02
 Entering OneElI...
 OneElI was handed    33377345 working-precision words.
 Calculate electrostatic properties
    NBasis =   195  MinDer = 0  MaxDer = 0
    NGrid  =    26  NMatD  =   1
 Requested accuracy = 0.1000D-12
 PrsmSu:  NPrtUS=   2 ThrOK=T IAlg=1 NPAlg=1 LenDen=           0.
 Prism:   IPart=     0 DynPar=F LinDyn=F Incr=         270.
 PRISM was handed    16567654 working-precision words and  2082 shell-pairs
 PRISM was handed    16567654 working-precision words and  2082 shell-pairs
 IPart=  1 NShTot=       26754 NBatch=        1029 AvBLen=        26.0
 IPart=  0 NShTot=       27378 NBatch=        1053 AvBLen=        26.0
 PrSmSu:  NxtVal=            541.
 --------------------------------------------------------
       Center         ----      EFG at Nuclei      ----
                      3XX-RR        3YY-RR        3ZZ-RR
 --------------------------------------------------------
     1   Atom        0.250434     -0.124263     -0.126171
     2   Atom        0.274894      0.101760     -0.376655
     3   Atom       -0.070793      0.048246      0.022547
     4   Atom       -0.085632      0.057844      0.027787
     5   Atom       -0.194183      0.041998      0.152185
     6   Atom       -0.057360     -0.126576      0.183936
     7   Atom       -0.392744     -0.126430      0.519174
     8   Atom       -0.333473      0.062986      0.270486
     9   Atom       -0.591310     -0.287760      0.879070
    10   Atom       -0.380957     -0.202286      0.583244
    11   Atom        0.694616      0.079410     -0.774026
    12   Atom       -0.018389      0.122409     -0.104020
    13   Atom        0.139860     -0.286916      0.147056
    14   Atom        0.099007      0.056182     -0.155189
    15   Atom        0.107089     -0.201930      0.094841
    16   Atom        0.135005      0.148122     -0.283127
    17   Atom        0.123766     -0.193699      0.069933
    18   Atom        0.126515      0.142718     -0.269232
    19   Atom        0.083997     -0.163917      0.079920
    20   Atom        0.129002      0.133840     -0.262842
    21   Atom        0.095340     -0.131223      0.035882
    22   Atom       -0.329305      0.173608      0.155697
    23   Atom        0.002034      0.036318     -0.038351
    24   Atom        0.083362     -0.290775      0.207413
    25   Atom       -0.367250      0.152176      0.215074
    26   Atom       -0.028737     -0.059229      0.087966
 --------------------------------------------------------
                        XY            XZ            YZ
 --------------------------------------------------------
     1   Atom       -0.142075     -0.293717     -0.333205
     2   Atom        0.011559     -0.035793      0.280353
     3   Atom        0.027776      0.040029     -0.002554
     4   Atom        0.027690      0.068021     -0.056487
     5   Atom        0.086263      0.068469     -0.061050
     6   Atom       -0.305189     -0.074655     -0.067388
     7   Atom       -0.316159      0.250504     -0.669752
     8   Atom        0.364495      0.417022      0.628366
     9   Atom        0.023141      0.106680     -0.297329
    10   Atom        0.195641     -0.135059     -0.662832
    11   Atom       -1.177659      0.396483     -0.135077
    12   Atom       -0.065253     -0.198004     -0.088663
    13   Atom        0.030628      0.006205     -0.054366
    14   Atom       -0.055243      0.116097      0.174064
    15   Atom        0.085261     -0.027877      0.137203
    16   Atom       -0.004042     -0.032338     -0.029015
    17   Atom        0.055788     -0.021014      0.171340
    18   Atom        0.001320      0.011527     -0.061988
    19   Atom        0.112167     -0.059912      0.148517
    20   Atom       -0.014701     -0.033700     -0.058863
    21   Atom        0.127658      0.118709     -0.268118
    22   Atom       -0.029360      0.181555     -0.029423
    23   Atom       -0.138533      0.221639      0.225831
    24   Atom        0.165357      0.038782     -0.114703
    25   Atom        0.106576     -0.039037     -0.028516
    26   Atom       -0.202031     -0.161428     -0.207329
 --------------------------------------------------------


 ---------------------------------------------------------------------------------
              Nuclear Quadrupole in Principal Axis System
 ---------------------------------------------------------------------------------

       Atom             a.u.   MegaHertz   Gauss  10(-4) cm-1        Axes

              Baa    -0.5756   -77.235   -27.559   -25.763  0.3548  0.6250  0.6953
     1 C(13)  Bbb     0.1610    21.609     7.711     7.208 -0.3947  0.7743 -0.4947
              Bcc     0.4145    55.626    19.849    18.555  0.8476  0.0989 -0.5214
 
              Baa    -0.5078   -68.137   -24.313   -22.728  0.0477 -0.4181  0.9071
     2 C(13)  Bbb     0.2306    30.951    11.044    10.324  0.0970  0.9058  0.4124
              Bcc     0.2771    37.186    13.269    12.404  0.9941 -0.0683 -0.0837
 
              Baa    -0.0908   -12.190    -4.350    -4.066  0.9243 -0.1907 -0.3306
     3 C(13)  Bbb     0.0347     4.654     1.661     1.552  0.2520 -0.3458  0.9039
              Bcc     0.0562     7.536     2.689     2.514  0.2866  0.9187  0.2716
 
              Baa    -0.1308   -17.552    -6.263    -5.855  0.8497 -0.2618 -0.4577
     4 C(13)  Bbb     0.0270     3.617     1.291     1.207  0.5108  0.6238  0.5915
              Bcc     0.1038    13.935     4.972     4.648 -0.1307  0.7364 -0.6638
 
              Baa    -0.2405   -32.275   -11.517   -10.766  0.9211 -0.3269 -0.2114
     5 C(13)  Bbb     0.0587     7.881     2.812     2.629  0.3791  0.8770  0.2952
              Bcc     0.1818    24.394     8.704     8.137  0.0889 -0.3521  0.9317
 
              Baa    -0.4158   -55.795   -19.909   -18.611  0.6591  0.7338  0.1645
     6 C(13)  Bbb     0.1950    26.166     9.337     8.728  0.2502 -0.4202  0.8722
              Bcc     0.2208    29.629    10.572     9.883  0.7092 -0.5337 -0.4606
 
              Baa    -0.6535   -25.204    -8.993    -8.407  0.6137  0.7349  0.2886
     7 N(14)  Bbb    -0.3880   -14.964    -5.340    -4.991  0.7461 -0.4203 -0.5164
              Bcc     1.0415    40.168    14.333    13.399  0.2581 -0.5322  0.8063
 
              Baa    -0.5593   -21.569    -7.696    -7.195  0.9231 -0.3070 -0.2315
     8 N(14)  Bbb    -0.4695   -18.108    -6.461    -6.040  0.0774  0.7380 -0.6703
              Bcc     1.0288    39.677    14.158    13.235  0.3766  0.6009  0.7051
 
              Baa    -0.6066   -23.395    -8.348    -7.804  0.9803 -0.1682 -0.1040
     9 N(14)  Bbb    -0.3501   -13.503    -4.818    -4.504  0.1873  0.9584  0.2156
              Bcc     0.9567    36.899    13.166    12.308  0.0635 -0.2308  0.9709
 
              Baa    -0.6286   -24.243    -8.651    -8.087 -0.4257  0.8130  0.3973
    10 N(14)  Bbb    -0.3659   -14.111    -5.035    -4.707  0.8916  0.3018  0.3376
              Bcc     0.9945    38.354    13.686    12.794 -0.1546 -0.4979  0.8533
 
              Baa    -0.9681    70.051    24.996    23.367 -0.5122 -0.4844  0.7093
    11 O(17)  Bbb    -0.7006    50.694    18.089    16.910  0.3452  0.6401  0.6864
              Bcc     1.6687  -120.745   -43.085   -40.276  0.7864 -0.5964  0.1606
 
              Baa    -0.2929  -156.283   -55.766   -52.131  0.6048  0.2560  0.7541
    12 H(1)   Bbb     0.1395    74.440    26.562    24.830  0.7847 -0.3534 -0.5093
              Bcc     0.1534    81.844    29.204    27.300  0.1361  0.8998 -0.4146
 
              Baa    -0.2959  -157.852   -56.326   -52.654 -0.0713  0.9899  0.1225
    13 H(1)   Bbb     0.1416    75.558    26.961    25.203  0.9785  0.0933 -0.1839
              Bcc     0.1542    82.294    29.365    27.450  0.1935 -0.1068  0.9753
 
              Baa    -0.2949  -157.357   -56.149   -52.489 -0.3097 -0.4610  0.8316
    14 H(1)   Bbb     0.1368    72.967    26.036    24.339  0.8562 -0.5157  0.0330
              Bcc     0.1582    84.391    30.113    28.150  0.4136  0.7222  0.5544
 
              Baa    -0.2765  -147.554   -52.651   -49.219 -0.2274  0.9078 -0.3524
    15 H(1)   Bbb     0.1268    67.681    24.150    22.576  0.9489  0.1253 -0.2895
              Bcc     0.1497    79.873    28.501    26.643  0.2187  0.4003  0.8899
 
              Baa    -0.2876  -153.437   -54.750   -51.181  0.0768  0.0670  0.9948
    16 H(1)   Bbb     0.1372    73.224    26.128    24.425  0.9867  0.1385 -0.0855
              Bcc     0.1503    80.213    28.622    26.756 -0.1435  0.9881 -0.0554
 
              Baa    -0.2866  -152.938   -54.572   -51.015 -0.1431  0.8887 -0.4355
    17 H(1)   Bbb     0.1309    69.862    24.929    23.304  0.9611  0.0198 -0.2753
              Bcc     0.1557    83.075    29.643    27.711  0.2361  0.4580  0.8571
 
              Baa    -0.2787  -148.696   -53.058   -49.600 -0.0286  0.1456  0.9889
    18 H(1)   Bbb     0.1268    67.676    24.149    22.574  0.9995  0.0189  0.0261
              Bcc     0.1518    81.019    28.910    27.025 -0.0149  0.9892 -0.1460
 
              Baa    -0.2786  -148.671   -53.050   -49.591 -0.3306  0.8511 -0.4078
    19 H(1)   Bbb     0.1270    67.761    24.179    22.603  0.9145  0.3957  0.0843
              Bcc     0.1516    80.910    28.871    26.989 -0.2331  0.3450  0.9092
 
              Baa    -0.2745  -146.466   -52.263   -48.856  0.0876  0.1452  0.9855
    20 H(1)   Bbb     0.1263    67.392    24.047    22.480  0.8537  0.4988 -0.1494
              Bcc     0.1482    79.073    28.215    26.376 -0.5133  0.8544 -0.0803
 
              Baa    -0.3903  -208.264   -74.314   -69.470 -0.3362  0.7521  0.5668
    21 H(1)   Bbb     0.1527    81.480    29.074    27.179  0.9163  0.4003  0.0123
              Bcc     0.2376   126.785    45.240    42.291  0.2176 -0.5235  0.8238
 
              Baa    -0.3904  -208.273   -74.317   -69.472  0.9489  0.0330 -0.3137
    22 H(1)   Bbb     0.1525    81.370    29.035    27.142  0.1313  0.8630  0.4879
              Bcc     0.2378   126.903    45.282    42.330  0.2869 -0.5042  0.8146
 
              Baa    -0.3981  -212.386   -75.785   -70.844 -0.5448 -0.5170  0.6603
    23 H(1)   Bbb     0.1557    83.100    29.652    27.719  0.7618 -0.6343  0.1318
              Bcc     0.2423   129.286    46.133    43.125  0.3506  0.5748  0.7394
 
              Baa    -0.3784  -201.885   -72.037   -67.341 -0.3452  0.9165  0.2023
    24 H(1)   Bbb     0.1458    77.771    27.751    25.942  0.9382  0.3428  0.0477
              Bcc     0.2326   124.114    44.287    41.400  0.0256 -0.2063  0.9782
 
              Baa    -0.3900  -208.112   -74.260   -69.419  0.9803 -0.1898  0.0543
    25 H(1)   Bbb     0.1534    81.832    29.200    27.296  0.1400  0.8621  0.4870
              Bcc     0.2367   126.280    45.060    42.123 -0.1393 -0.4698  0.8717
 
              Baa    -0.3902  -208.189   -74.287   -69.445  0.5815  0.6562  0.4809
    26 H(1)   Bbb     0.1538    82.044    29.275    27.367  0.8027 -0.5590 -0.2079
              Bcc     0.2364   126.146    45.012    42.078 -0.1324 -0.5069  0.8518
 

 ---------------------------------------------------------------------------------

 No NMR shielding tensors so no spin-rotation constants.
 Leave Link  601 at Sun Feb 18 17:06:23 2018, MaxMem=   33554432 cpu:       0.5
 Merz-Kollman atomic radii used.
 Read replacement radii for each type of atom:
 Atom Element Radius
    1     6    1.50
    2     6    1.50
    3     6    1.50
    4     6    1.50
    5     6    1.50
    6     6    1.50
    7     7    1.50
    8     7    1.50
    9     7    1.50
   10     7    1.50
   11     8    1.40
   12     1    1.20
   13     1    1.20
   14     1    1.20
   15     1    1.20
   16     1    1.20
   17     1    1.20
   18     1    1.20
   19     1    1.20
   20     1    1.20
   21     1    1.20
   22     1    1.20
   23     1    1.20
   24     1    1.20
   25     1    1.20
   26     1    1.20
 Generate VDW surfaces: Layer= 4 Dens= 1 Start= 1.400 Inc= 0.200

 **********************************************************************

            Electrostatic Properties Using The SCF Density

 **********************************************************************

       Atomic Center    1 is at   3.274107 -0.318547  0.197687
       Atomic Center    2 is at  -3.395694 -0.259400  0.006761
       Atomic Center    3 is at   4.700523 -0.669932 -0.177143
       Atomic Center    4 is at   0.269742  0.247301 -0.495203
       Atomic Center    5 is at   1.396389  1.223847 -0.109313
       Atomic Center    6 is at  -1.074685  0.665599  0.101313
       Atomic Center    7 is at  -4.224225 -1.233909 -0.405664
       Atomic Center    8 is at   2.702294  0.719854 -0.496372
       Atomic Center    9 is at  -2.078972 -0.387123 -0.148784
       Atomic Center   10 is at  -3.912650  0.849280  0.554131
       Atomic Center   11 is at   2.648464 -0.911415  1.070871
       Atomic Center   12 is at   5.361896 -0.392930  0.650825
       Atomic Center   13 is at   4.776579 -1.752763 -0.305722
       Atomic Center   14 is at   5.050242 -0.173130 -1.087038
       Atomic Center   15 is at   0.552033 -0.732485 -0.095022
       Atomic Center   16 is at   0.190370  0.171123 -1.585866
       Atomic Center   17 is at   1.249454  2.197909 -0.586333
       Atomic Center   18 is at   1.383131  1.370852  0.978035
       Atomic Center   19 is at  -1.436425  1.596218 -0.351725
       Atomic Center   20 is at  -0.969916  0.818569  1.183900
       Atomic Center   21 is at  -3.893328 -1.995829 -0.980837
       Atomic Center   22 is at  -5.182903 -1.277773 -0.089711
       Atomic Center   23 is at   3.253552  1.242179 -1.161448
       Atomic Center   24 is at  -1.718945 -1.312960 -0.348163
       Atomic Center   25 is at  -4.901309  1.050203  0.500299
       Atomic Center   26 is at  -3.329565  1.512203  1.044055
      ESP Fit Center   27 is at   4.324107 -0.318547  2.016340
      ESP Fit Center   28 is at   3.799107  0.590780  2.016340
      ESP Fit Center   29 is at   4.029603  1.335759  1.247687
      ESP Fit Center   30 is at   2.083142 -1.692993 -0.852313
      ESP Fit Center   31 is at   3.015285 -2.118689 -0.852313
      ESP Fit Center   32 is at   2.749107 -1.227873 -1.620966
      ESP Fit Center   33 is at  -3.920694 -1.168727  1.825414
      ESP Fit Center   34 is at  -2.870694 -1.168727  1.825414
      ESP Fit Center   35 is at  -2.870694  0.649927 -1.811893
      ESP Fit Center   36 is at  -3.920694  0.649927 -1.811893
      ESP Fit Center   37 is at  -3.395694 -0.259400 -2.093239
      ESP Fit Center   38 is at   6.800523 -0.669932 -0.177143
      ESP Fit Center   39 is at   5.893459  1.058335 -0.177143
      ESP Fit Center   40 is at   4.953650  1.414757 -0.177143
      ESP Fit Center   41 is at   6.559981 -1.645850 -0.177143
      ESP Fit Center   42 is at   6.230472 -1.653170 -1.227143
      ESP Fit Center   43 is at   3.650523 -0.669932 -1.995796
      ESP Fit Center   44 is at   4.175523 -1.579258 -1.995796
      ESP Fit Center   45 is at   5.225523 -1.579258 -1.995796
      ESP Fit Center   46 is at   0.010921 -1.552841 -1.545203
      ESP Fit Center   47 is at   2.151885  2.878153  0.940687
      ESP Fit Center   48 is at   0.205424  2.598294  0.940687
      ESP Fit Center   49 is at   1.396389  1.223847 -2.209313
      ESP Fit Center   50 is at  -1.333506  2.465742  1.151313
      ESP Fit Center   51 is at  -4.224225 -1.233909  1.694336
      ESP Fit Center   52 is at  -4.749225 -2.143236  1.412989
      ESP Fit Center   53 is at  -3.699225 -2.143236  1.412989
      ESP Fit Center   54 is at  -4.483047 -3.034051  0.644336
      ESP Fit Center   55 is at  -3.468729 -2.888214  0.644336
      ESP Fit Center   56 is at  -4.968896 -3.197443 -0.405664
      ESP Fit Center   57 is at  -5.415190  0.140537 -1.455664
      ESP Fit Center   58 is at  -5.415190 -2.608356 -1.455664
      ESP Fit Center   59 is at  -3.699225 -0.324582 -2.224318
      ESP Fit Center   60 is at  -4.749225 -0.324582 -2.224318
      ESP Fit Center   61 is at  -5.274225 -1.233909 -2.224318
      ESP Fit Center   62 is at  -4.224225 -1.233909 -2.505664
      ESP Fit Center   63 is at   3.227294  1.629181  1.322281
      ESP Fit Center   64 is at   4.232242  1.703092  0.553628
      ESP Fit Center   65 is at   3.457789  2.374159  0.553628
      ESP Fit Center   66 is at   2.955421  2.804543 -0.496372
      ESP Fit Center   67 is at   1.652294  0.719854 -2.315025
      ESP Fit Center   68 is at   2.177294 -0.189473 -2.315025
      ESP Fit Center   69 is at   3.227294 -0.189473 -2.315025
      ESP Fit Center   70 is at  -2.078972 -0.387123  1.951216
      ESP Fit Center   71 is at  -2.603972 -1.296450  1.669869
      ESP Fit Center   72 is at  -1.553972 -1.296450  1.669869
      ESP Fit Center   73 is at  -1.553972  0.522204 -1.967438
      ESP Fit Center   74 is at  -2.603972  0.522204 -1.967438
      ESP Fit Center   75 is at  -2.603972 -1.296450 -1.967438
      ESP Fit Center   76 is at  -2.078972 -0.387123 -2.248784
      ESP Fit Center   77 is at  -3.912650  0.849280  2.654131
      ESP Fit Center   78 is at  -4.437650  1.758607  2.372785
      ESP Fit Center   79 is at  -4.962650  0.849280  2.372785
      ESP Fit Center   80 is at  -4.437650 -0.060047  2.372785
      ESP Fit Center   81 is at  -3.387650 -0.060047  2.372785
      ESP Fit Center   82 is at  -5.103615 -0.525166  1.604131
      ESP Fit Center   83 is at  -4.657320  2.812814  0.554131
      ESP Fit Center   84 is at  -3.157154  2.503585 -0.495869
      ESP Fit Center   85 is at  -4.171472  2.649422 -0.495869
      ESP Fit Center   86 is at  -3.387650  1.758607 -1.264522
      ESP Fit Center   87 is at  -4.437650  1.758607 -1.264522
      ESP Fit Center   88 is at  -4.962650  0.849280 -1.264522
      ESP Fit Center   89 is at   2.648464 -0.911415  3.030871
      ESP Fit Center   90 is at   3.628464 -0.911415  2.768280
      ESP Fit Center   91 is at   3.138464 -0.062710  2.768280
      ESP Fit Center   92 is at   2.158464 -0.062710  2.768280
      ESP Fit Center   93 is at   1.668464 -0.911415  2.768280
      ESP Fit Center   94 is at   2.158464 -1.760120  2.768280
      ESP Fit Center   95 is at   3.138464 -1.760120  2.768280
      ESP Fit Center   96 is at   4.345874 -0.911415  2.050871
      ESP Fit Center   97 is at   3.172993  0.702918  2.050871
      ESP Fit Center   98 is at   0.951054 -0.911415  2.050871
      ESP Fit Center   99 is at   1.275231 -1.909127  2.050871
      ESP Fit Center  100 is at   2.123936 -2.525747  2.050871
      ESP Fit Center  101 is at   3.172993 -2.525747  2.050871
      ESP Fit Center  102 is at   4.021698 -1.909127  2.050871
      ESP Fit Center  103 is at   0.951054 -1.891415  1.070871
      ESP Fit Center  104 is at   1.668464 -2.608825  1.070871
      ESP Fit Center  105 is at   2.648464 -2.871415  1.070871
      ESP Fit Center  106 is at   3.628464 -2.608825  1.070871
      ESP Fit Center  107 is at   2.123936 -2.525747  0.090871
      ESP Fit Center  108 is at   3.172993 -2.525747  0.090871
      ESP Fit Center  109 is at   5.361896 -0.392930  2.330825
      ESP Fit Center  110 is at   6.349375 -0.392930  2.009973
      ESP Fit Center  111 is at   5.667044  0.546219  2.009973
      ESP Fit Center  112 is at   4.563009  0.187496  2.009973
      ESP Fit Center  113 is at   4.563009 -0.973356  2.009973
      ESP Fit Center  114 is at   5.667044 -1.332078  2.009973
      ESP Fit Center  115 is at   6.959671 -0.392930  1.169973
      ESP Fit Center  116 is at   6.585863  0.634100  1.169973
      ESP Fit Center  117 is at   5.639347  1.180571  1.169973
      ESP Fit Center  118 is at   6.585863 -1.419960  1.169973
      ESP Fit Center  119 is at   6.959671 -0.392930  0.131676
      ESP Fit Center  120 is at   6.585863  0.634100  0.131676
      ESP Fit Center  121 is at   5.081726 -2.691911  1.053426
      ESP Fit Center  122 is at   3.977691 -3.136476  0.213426
      ESP Fit Center  123 is at   5.054029 -3.326264  0.213426
      ESP Fit Center  124 is at   6.000545 -2.779793  0.213426
      ESP Fit Center  125 is at   3.275161 -2.299234 -0.824871
      ESP Fit Center  126 is at   3.977691 -3.136476 -0.824871
      ESP Fit Center  127 is at   5.054029 -3.326264 -0.824871
      ESP Fit Center  128 is at   6.000545 -2.779793 -0.824871
      ESP Fit Center  129 is at   5.764058 -1.752763 -1.664871
      ESP Fit Center  130 is at   3.977691 -2.333188 -1.664871
      ESP Fit Center  131 is at   5.081726 -2.691911 -1.664871
      ESP Fit Center  132 is at   4.776579 -1.752763 -1.985722
      ESP Fit Center  133 is at   6.274208  0.853900 -0.567890
      ESP Fit Center  134 is at   5.327693  1.400371 -0.567890
      ESP Fit Center  135 is at   6.648017 -0.173130 -1.606187
      ESP Fit Center  136 is at   6.274208  0.853900 -1.606187
      ESP Fit Center  137 is at   5.327693  1.400371 -1.606187
      ESP Fit Center  138 is at   6.274208 -1.200160 -1.606187
      ESP Fit Center  139 is at   6.037721 -0.173130 -2.446187
      ESP Fit Center  140 is at   5.355390  0.766018 -2.446187
      ESP Fit Center  141 is at   4.251354  0.407295 -2.446187
      ESP Fit Center  142 is at   4.251354 -0.753556 -2.446187
      ESP Fit Center  143 is at   5.355390 -1.112279 -2.446187
      ESP Fit Center  144 is at   5.050242 -0.173130 -2.767038
      ESP Fit Center  145 is at   0.552033 -0.732485  1.584978
      ESP Fit Center  146 is at  -0.246854 -1.312911  1.264127
      ESP Fit Center  147 is at  -0.246854 -2.116199  0.424127
      ESP Fit Center  148 is at   0.829484 -2.305987  0.424127
      ESP Fit Center  149 is at  -0.246854 -2.116199 -0.614170
      ESP Fit Center  150 is at   0.829484 -2.305987 -0.614170
      ESP Fit Center  151 is at   1.776000 -1.759515 -0.614170
      ESP Fit Center  152 is at   0.857181 -1.671634 -1.454170
      ESP Fit Center  153 is at   0.467821  1.744625 -2.105015
      ESP Fit Center  154 is at  -0.608517  1.554837 -2.105015
      ESP Fit Center  155 is at  -1.311047  0.717595 -2.105015
      ESP Fit Center  156 is at  -1.311047 -0.375348 -2.105015
      ESP Fit Center  157 is at  -0.608517 -1.212590 -2.105015
      ESP Fit Center  158 is at   0.467821 -1.402378 -2.105015
      ESP Fit Center  159 is at   1.414337 -0.855906 -2.105015
      ESP Fit Center  160 is at   1.177849  0.171123 -2.945015
      ESP Fit Center  161 is at   0.495518  1.110272 -2.945015
      ESP Fit Center  162 is at  -0.608517  0.751549 -2.945015
      ESP Fit Center  163 is at  -0.608517 -0.409302 -2.945015
      ESP Fit Center  164 is at   0.495518 -0.768025 -2.945015
      ESP Fit Center  165 is at   0.190370  0.171123 -3.265866
      ESP Fit Center  166 is at   1.554602  3.137057  0.772816
      ESP Fit Center  167 is at   2.473421  3.224938 -0.067184
      ESP Fit Center  168 is at   1.526905  3.771410 -0.067184
      ESP Fit Center  169 is at   0.450567  3.581622 -0.067184
      ESP Fit Center  170 is at   2.473421  3.224938 -1.105481
      ESP Fit Center  171 is at   1.526905  3.771410 -1.105481
      ESP Fit Center  172 is at   0.450567  3.581622 -1.105481
      ESP Fit Center  173 is at  -0.251963  2.744380 -1.105481
      ESP Fit Center  174 is at   1.554602  3.137057 -1.945481
      ESP Fit Center  175 is at   0.450567  2.778334 -1.945481
      ESP Fit Center  176 is at   1.249454  2.197909 -2.266333
      ESP Fit Center  177 is at   1.383131  1.370852  2.658035
      ESP Fit Center  178 is at   2.370610  1.370852  2.337183
      ESP Fit Center  179 is at   1.688279  2.310000  2.337183
      ESP Fit Center  180 is at   0.584243  1.951278  2.337183
      ESP Fit Center  181 is at   0.584243  0.790426  2.337183
      ESP Fit Center  182 is at   1.688279  0.431703  2.337183
      ESP Fit Center  183 is at   2.980906  1.370852  1.497183
      ESP Fit Center  184 is at   2.607097  2.397882  1.497183
      ESP Fit Center  185 is at   1.660581  2.944353  1.497183
      ESP Fit Center  186 is at   0.584243  2.754566  1.497183
      ESP Fit Center  187 is at  -0.212458  2.623248  0.167423
      ESP Fit Center  188 is at  -1.158974  3.169719  0.167423
      ESP Fit Center  189 is at  -2.235312  2.979932  0.167423
      ESP Fit Center  190 is at  -1.158974  3.169719 -0.870874
      ESP Fit Center  191 is at  -2.235312  2.979932 -0.870874
      ESP Fit Center  192 is at  -2.937842  2.142689 -0.870874
      ESP Fit Center  193 is at  -1.131277  2.535367 -1.710874
      ESP Fit Center  194 is at  -2.235312  2.176644 -1.710874
      ESP Fit Center  195 is at  -2.235312  1.015792 -1.710874
      ESP Fit Center  196 is at  -1.436425  1.596218 -2.031725
      ESP Fit Center  197 is at  -0.969916  0.818569  2.863900
      ESP Fit Center  198 is at   0.017563  0.818569  2.543049
      ESP Fit Center  199 is at  -0.664768  1.757718  2.543049
      ESP Fit Center  200 is at  -1.768803  1.398995  2.543049
      ESP Fit Center  201 is at  -1.768803  0.238144  2.543049
      ESP Fit Center  202 is at  -0.664768 -0.120579  2.543049
      ESP Fit Center  203 is at  -0.692465  2.392071  1.703049
      ESP Fit Center  204 is at  -1.768803  2.202283  1.703049
      ESP Fit Center  205 is at  -0.692465 -0.754932  1.703049
      ESP Fit Center  206 is at   0.254051 -0.208461  1.703049
      ESP Fit Center  207 is at  -4.692216 -3.379542 -0.461688
      ESP Fit Center  208 is at  -3.615878 -3.569330 -0.461688
      ESP Fit Center  209 is at  -2.669362 -3.022859 -0.461688
      ESP Fit Center  210 is at  -4.692216 -3.379542 -1.499985
      ESP Fit Center  211 is at  -3.615878 -3.569330 -1.499985
      ESP Fit Center  212 is at  -2.669362 -3.022859 -1.499985
      ESP Fit Center  213 is at  -2.905849 -1.995829 -2.339985
      ESP Fit Center  214 is at  -4.692216 -2.576254 -2.339985
      ESP Fit Center  215 is at  -3.588181 -2.934977 -2.339985
      ESP Fit Center  216 is at  -3.893328 -1.995829 -2.660837
      ESP Fit Center  217 is at  -5.182903 -1.277773  1.590289
      ESP Fit Center  218 is at  -5.981790 -0.697347  1.269438
      ESP Fit Center  219 is at  -5.981790 -1.858198  1.269438
      ESP Fit Center  220 is at  -6.684320 -0.731301  0.429438
      ESP Fit Center  221 is at  -6.684320 -1.824244  0.429438
      ESP Fit Center  222 is at  -5.981790 -2.661486  0.429438
      ESP Fit Center  223 is at  -5.981790  0.105941 -0.608859
      ESP Fit Center  224 is at  -6.684320 -0.731301 -0.608859
      ESP Fit Center  225 is at  -6.684320 -1.824244 -0.608859
      ESP Fit Center  226 is at  -5.981790 -2.661486 -0.608859
      ESP Fit Center  227 is at  -5.981790 -0.697347 -1.448859
      ESP Fit Center  228 is at  -5.981790 -1.858198 -1.448859
      ESP Fit Center  229 is at   4.477518  2.269209 -0.642299
      ESP Fit Center  230 is at   3.531002  2.815680 -0.642299
      ESP Fit Center  231 is at   4.477518  2.269209 -1.680597
      ESP Fit Center  232 is at   3.531002  2.815680 -1.680597
      ESP Fit Center  233 is at   2.454664  2.625893 -1.680597
      ESP Fit Center  234 is at   4.241031  1.242179 -2.520597
      ESP Fit Center  235 is at   3.558700  2.181327 -2.520597
      ESP Fit Center  236 is at   2.454664  1.822605 -2.520597
      ESP Fit Center  237 is at   3.558700  0.303030 -2.520597
      ESP Fit Center  238 is at   3.253552  1.242179 -2.841448
      ESP Fit Center  239 is at  -1.413797 -2.252109  1.010986
      ESP Fit Center  240 is at  -2.517832 -2.696674  0.170986
      ESP Fit Center  241 is at  -1.441494 -2.886461  0.170986
      ESP Fit Center  242 is at  -0.494978 -2.339990  0.170986
      ESP Fit Center  243 is at  -1.441494 -2.886461 -0.867312
      ESP Fit Center  244 is at  -0.494978 -2.339990 -0.867312
      ESP Fit Center  245 is at  -0.731465 -1.312960 -1.707312
      ESP Fit Center  246 is at  -1.413797 -2.252109 -1.707312
      ESP Fit Center  247 is at  -1.718945 -1.312960 -2.028163
      ESP Fit Center  248 is at  -5.700196  1.630629  1.859447
      ESP Fit Center  249 is at  -5.700196  0.469777  1.859447
      ESP Fit Center  250 is at  -5.700196  2.433917  1.019447
      ESP Fit Center  251 is at  -6.402726  1.596674  1.019447
      ESP Fit Center  252 is at  -6.402726  0.503732  1.019447
      ESP Fit Center  253 is at  -5.700196  2.433917 -0.018850
      ESP Fit Center  254 is at  -6.402726  1.596674 -0.018850
      ESP Fit Center  255 is at  -6.402726  0.503732 -0.018850
      ESP Fit Center  256 is at  -5.700196  1.630629 -0.858850
      ESP Fit Center  257 is at  -5.700196  0.469777 -0.858850
      ESP Fit Center  258 is at  -3.329565  1.512203  2.724055
      ESP Fit Center  259 is at  -2.342086  1.512203  2.403204
      ESP Fit Center  260 is at  -3.024417  2.451352  2.403204
      ESP Fit Center  261 is at  -4.128453  2.092629  2.403204
      ESP Fit Center  262 is at  -2.105599  2.539233  1.563204
      ESP Fit Center  263 is at  -3.052115  3.085705  1.563204
      ESP Fit Center  264 is at  -4.128453  2.895917  1.563204
      ESP Fit Center  265 is at  -3.052115  3.085705  0.524907
      ESP Fit Center  266 is at   3.794767  0.583264  2.360012
      ESP Fit Center  267 is at   4.053590  1.388283  1.694063
      ESP Fit Center  268 is at   2.045329 -1.736632 -1.298688
      ESP Fit Center  269 is at   3.007068 -2.175843 -1.298688
      ESP Fit Center  270 is at   2.753446 -1.220357 -1.964638
      ESP Fit Center  271 is at  -3.916355 -1.161211  2.169086
      ESP Fit Center  272 is at  -2.875034 -1.161211  2.169086
      ESP Fit Center  273 is at  -3.916355  0.642410 -2.155565
      ESP Fit Center  274 is at   5.221184  1.611231  0.356907
      ESP Fit Center  275 is at   6.808635 -1.685144  0.356907
      ESP Fit Center  276 is at   7.040350 -0.669932 -0.711193
      ESP Fit Center  277 is at   6.808635 -1.685144 -0.711193
      ESP Fit Center  278 is at   6.279048 -1.684388 -1.673519
      ESP Fit Center  279 is at   3.659202 -0.669932 -2.339468
      ESP Fit Center  280 is at   4.179863 -1.571742 -2.339468
      ESP Fit Center  281 is at   2.855247  3.053198  0.424738
      ESP Fit Center  282 is at  -4.744886 -2.135719  1.756661
      ESP Fit Center  283 is at  -3.703565 -2.135719  1.756661
      ESP Fit Center  284 is at  -4.491264 -3.091206  1.090711
      ESP Fit Center  285 is at  -3.444742 -2.940738  1.090711
      ESP Fit Center  286 is at  -4.744886 -3.515072  0.128386
      ESP Fit Center  287 is at  -5.683084 -3.063259 -0.939715
      ESP Fit Center  288 is at  -5.453003  0.184176 -1.902040
      ESP Fit Center  289 is at  -6.024614 -0.705267 -1.902040
      ESP Fit Center  290 is at  -6.024614 -1.762551 -1.902040
      ESP Fit Center  291 is at  -5.453003 -2.651994 -1.902040
      ESP Fit Center  292 is at  -3.703565 -0.332099 -2.567990
      ESP Fit Center  293 is at  -4.744886 -0.332099 -2.567990
      ESP Fit Center  294 is at  -5.265546 -1.233909 -2.567990
      ESP Fit Center  295 is at  -4.224225 -1.233909 -2.805664
      ESP Fit Center  296 is at   3.222954  1.621665  1.665953
      ESP Fit Center  297 is at   4.280818  1.734310  1.000003
      ESP Fit Center  298 is at   3.481776  2.426684  1.000003
      ESP Fit Center  299 is at   4.810405  1.735067  0.037678
      ESP Fit Center  300 is at   4.161152  2.549204  0.037678
      ESP Fit Center  301 is at   3.222954  3.001017  0.037678
      ESP Fit Center  302 is at   2.435255 -1.137442 -1.992748
      ESP Fit Center  303 is at   2.181633 -0.181956 -2.658697
      ESP Fit Center  304 is at   3.222954 -0.181956 -2.658697
      ESP Fit Center  305 is at  -2.078972 -0.387123  2.251216
      ESP Fit Center  306 is at  -1.558311 -1.288933  2.013541
      ESP Fit Center  307 is at  -2.346010 -2.244419  1.347591
      ESP Fit Center  308 is at  -1.558311  0.514688 -2.311110
      ESP Fit Center  309 is at  -2.599632  0.514688 -2.311110
      ESP Fit Center  310 is at  -2.599632 -1.288933 -2.311110
      ESP Fit Center  311 is at  -1.558311 -1.288933 -2.311110
      ESP Fit Center  312 is at  -2.078972 -0.387123 -2.548784
      ESP Fit Center  313 is at  -3.912650  0.849280  2.954131
      ESP Fit Center  314 is at  -4.433311  1.751091  2.716457
      ESP Fit Center  315 is at  -4.953971  0.849280  2.716457
      ESP Fit Center  316 is at  -4.433311 -0.052530  2.716457
      ESP Fit Center  317 is at  -3.391990 -0.052530  2.716457
      ESP Fit Center  318 is at  -5.141428  2.267365  2.050507
      ESP Fit Center  319 is at  -5.141428 -0.568805  2.050507
      ESP Fit Center  320 is at  -4.433311  3.130443  1.088181
      ESP Fit Center  321 is at  -4.433311  3.130443  0.020081
      ESP Fit Center  322 is at  -3.133167  2.556110 -0.942244
      ESP Fit Center  323 is at  -4.179689  2.706577 -0.942244
      ESP Fit Center  324 is at  -3.391990  1.751091 -1.608194
      ESP Fit Center  325 is at  -4.433311  1.751091 -1.608194
      ESP Fit Center  326 is at  -4.953971  0.849280 -1.608194
      ESP Fit Center  327 is at   2.648464 -0.911415  3.310871
      ESP Fit Center  328 is at   3.620364 -0.911415  3.089041
      ESP Fit Center  329 is at   3.134414 -0.069725  3.089041
      ESP Fit Center  330 is at   2.162514 -0.069725  3.089041
      ESP Fit Center  331 is at   1.676565 -0.911415  3.089041
      ESP Fit Center  332 is at   2.162514 -1.753105  3.089041
      ESP Fit Center  333 is at   3.134414 -1.753105  3.089041
      ESP Fit Center  334 is at   4.399767 -0.911415  2.467488
      ESP Fit Center  335 is at   4.065298  0.117975  2.467488
      ESP Fit Center  336 is at   3.189646  0.754173  2.467488
      ESP Fit Center  337 is at   1.231631  0.117975  2.467488
      ESP Fit Center  338 is at   0.897162 -0.911415  2.467488
      ESP Fit Center  339 is at   1.231631 -1.940805  2.467488
      ESP Fit Center  340 is at   2.107282 -2.577002  2.467488
      ESP Fit Center  341 is at   3.189646 -2.577002  2.467488
      ESP Fit Center  342 is at   4.065298 -1.940805  2.467488
      ESP Fit Center  343 is at   1.013838 -2.359568  1.569318
      ESP Fit Center  344 is at   1.874064 -2.953339  1.569318
      ESP Fit Center  345 is at   2.911697 -3.079331  1.569318
      ESP Fit Center  346 is at   3.889026 -2.708679  1.569318
      ESP Fit Center  347 is at   1.874064 -2.953339  0.572424
      ESP Fit Center  348 is at   2.911697 -3.079331  0.572424
      ESP Fit Center  349 is at   2.107282 -2.577002 -0.325747
      ESP Fit Center  350 is at   5.361896 -0.392930  2.570825
      ESP Fit Center  351 is at   6.321896 -0.392930  2.313593
      ESP Fit Center  352 is at   5.841896  0.438455  2.313593
      ESP Fit Center  353 is at   4.881896  0.438455  2.313593
      ESP Fit Center  354 is at   4.881896 -1.224314  2.313593
      ESP Fit Center  355 is at   5.841896 -1.224314  2.313593
      ESP Fit Center  356 is at   7.024665 -0.392930  1.610825
      ESP Fit Center  357 is at   6.707104  0.584421  1.610825
      ESP Fit Center  358 is at   5.875720  1.188457  1.610825
      ESP Fit Center  359 is at   4.848072  1.188457  1.610825
      ESP Fit Center  360 is at   5.875720 -1.974317  1.610825
      ESP Fit Center  361 is at   6.707104 -1.370281  1.610825
      ESP Fit Center  362 is at   7.281896 -0.392930  0.650825
      ESP Fit Center  363 is at   7.024665  0.567070  0.650825
      ESP Fit Center  364 is at   6.321896  1.269839  0.650825
      ESP Fit Center  365 is at   5.361896  1.527070  0.650825
      ESP Fit Center  366 is at   7.024665 -1.352930  0.650825
      ESP Fit Center  367 is at   4.296579 -2.584147  1.357046
      ESP Fit Center  368 is at   5.256579 -2.584147  1.357046
      ESP Fit Center  369 is at   4.262755 -3.334150  0.654278
      ESP Fit Center  370 is at   5.290402 -3.334150  0.654278
      ESP Fit Center  371 is at   6.121787 -2.730114  0.654278
      ESP Fit Center  372 is at   3.113810 -2.712763 -0.305722
      ESP Fit Center  373 is at   3.816579 -3.415531 -0.305722
      ESP Fit Center  374 is at   4.776579 -3.672763 -0.305722
      ESP Fit Center  375 is at   5.736579 -3.415531 -0.305722
      ESP Fit Center  376 is at   6.439347 -2.712763 -0.305722
      ESP Fit Center  377 is at   3.431370 -2.730114 -1.265722
      ESP Fit Center  378 is at   4.262755 -3.334150 -1.265722
      ESP Fit Center  379 is at   5.290402 -3.334150 -1.265722
      ESP Fit Center  380 is at   6.121787 -2.730114 -1.265722
      ESP Fit Center  381 is at   4.296579 -2.584147 -1.968491
      ESP Fit Center  382 is at   5.256579 -2.584147 -1.968491
      ESP Fit Center  383 is at   6.970242 -0.173130 -1.087038
      ESP Fit Center  384 is at   6.713011  0.786870 -1.087038
      ESP Fit Center  385 is at   6.010242  1.489639 -1.087038
      ESP Fit Center  386 is at   6.713011 -0.173130 -2.047038
      ESP Fit Center  387 is at   6.395450  0.804221 -2.047038
      ESP Fit Center  388 is at   5.564066  1.408257 -2.047038
      ESP Fit Center  389 is at   6.395450 -1.150481 -2.047038
      ESP Fit Center  390 is at   6.010242 -0.173130 -2.749807
      ESP Fit Center  391 is at   5.530242  0.658254 -2.749807
      ESP Fit Center  392 is at   4.570242  0.658254 -2.749807
      ESP Fit Center  393 is at   4.090242 -0.173130 -2.749807
      ESP Fit Center  394 is at   4.570242 -1.004515 -2.749807
      ESP Fit Center  395 is at   5.530242 -1.004515 -2.749807
      ESP Fit Center  396 is at   5.050242 -0.173130 -3.007038
      ESP Fit Center  397 is at   0.072033 -1.563870  1.567747
      ESP Fit Center  398 is at   0.038210 -2.313873  0.864978
      ESP Fit Center  399 is at   0.552033 -2.652485 -0.095022
      ESP Fit Center  400 is at   0.038210 -2.313873 -1.055022
      ESP Fit Center  401 is at   1.065857 -2.313873 -1.055022
      ESP Fit Center  402 is at   0.704194  1.752511 -2.545866
      ESP Fit Center  403 is at  -0.323454  1.752511 -2.545866
      ESP Fit Center  404 is at  -1.154838  1.148474 -2.545866
      ESP Fit Center  405 is at  -1.472399  0.171123 -2.545866
      ESP Fit Center  406 is at  -1.154838 -0.806227 -2.545866
      ESP Fit Center  407 is at  -0.323454 -1.410264 -2.545866
      ESP Fit Center  408 is at   0.704194 -1.410264 -2.545866
      ESP Fit Center  409 is at   1.535578 -0.806227 -2.545866
      ESP Fit Center  410 is at   1.150370  0.171123 -3.248635
      ESP Fit Center  411 is at   0.670370  1.002508 -3.248635
      ESP Fit Center  412 is at  -0.289630  1.002508 -3.248635
      ESP Fit Center  413 is at  -0.769630  0.171123 -3.248635
      ESP Fit Center  414 is at  -0.289630 -0.660261 -3.248635
      ESP Fit Center  415 is at   0.670370 -0.660261 -3.248635
      ESP Fit Center  416 is at   0.190370  0.171123 -3.505866
      ESP Fit Center  417 is at   1.763278  3.779296  0.373667
      ESP Fit Center  418 is at   0.735630  3.779296  0.373667
      ESP Fit Center  419 is at  -0.095754  3.175260  0.373667
      ESP Fit Center  420 is at   2.912223  3.157909 -0.586333
      ESP Fit Center  421 is at   2.209454  3.860677 -0.586333
      ESP Fit Center  422 is at   1.249454  4.117909 -0.586333
      ESP Fit Center  423 is at   0.289454  3.860677 -0.586333
      ESP Fit Center  424 is at   2.594662  3.175260 -1.546333
      ESP Fit Center  425 is at   1.763278  3.779296 -1.546333
      ESP Fit Center  426 is at   0.735630  3.779296 -1.546333
      ESP Fit Center  427 is at  -0.095754  3.175260 -1.546333
      ESP Fit Center  428 is at   1.729454  3.029293 -2.249102
      ESP Fit Center  429 is at   0.769454  3.029293 -2.249102
      ESP Fit Center  430 is at   0.289454  2.197909 -2.249102
      ESP Fit Center  431 is at   1.249454  2.197909 -2.506333
      ESP Fit Center  432 is at   1.383131  1.370852  2.898035
      ESP Fit Center  433 is at   2.343131  1.370852  2.640803
      ESP Fit Center  434 is at   1.863131  2.202236  2.640803
      ESP Fit Center  435 is at   0.903131  2.202236  2.640803
      ESP Fit Center  436 is at   0.423131  1.370852  2.640803
      ESP Fit Center  437 is at   0.903131  0.539467  2.640803
      ESP Fit Center  438 is at   1.863131  0.539467  2.640803
      ESP Fit Center  439 is at   3.045899  1.370852  1.938035
      ESP Fit Center  440 is at   2.728339  2.348203  1.938035
      ESP Fit Center  441 is at   1.896955  2.952239  1.938035
      ESP Fit Center  442 is at   0.869307  2.952239  1.938035
      ESP Fit Center  443 is at   0.037923  2.348203  1.938035
      ESP Fit Center  444 is at  -0.922601  3.177605  0.608275
      ESP Fit Center  445 is at  -1.950249  3.177605  0.608275
      ESP Fit Center  446 is at  -0.476425  3.258987 -0.351725
      ESP Fit Center  447 is at  -1.436425  3.516218 -0.351725
      ESP Fit Center  448 is at  -2.396425  3.258987 -0.351725
      ESP Fit Center  449 is at  -0.922601  3.177605 -1.311725
      ESP Fit Center  450 is at  -1.950249  3.177605 -1.311725
      ESP Fit Center  451 is at  -2.781633  2.573569 -1.311725
      ESP Fit Center  452 is at  -0.956425  2.427603 -2.014494
      ESP Fit Center  453 is at  -1.916425  2.427603 -2.014494
      ESP Fit Center  454 is at  -2.396425  1.596218 -2.014494
      ESP Fit Center  455 is at  -1.436425  1.596218 -2.271725
      ESP Fit Center  456 is at  -0.969916  0.818569  3.103900
      ESP Fit Center  457 is at  -0.009916  0.818569  2.846669
      ESP Fit Center  458 is at  -0.489916  1.649954  2.846669
      ESP Fit Center  459 is at  -1.449916  1.649954  2.846669
      ESP Fit Center  460 is at  -1.929916  0.818569  2.846669
      ESP Fit Center  461 is at  -1.449916 -0.012815  2.846669
      ESP Fit Center  462 is at  -0.489916 -0.012815  2.846669
      ESP Fit Center  463 is at  -0.456092  2.399956  2.143900
      ESP Fit Center  464 is at  -1.483740  2.399956  2.143900
      ESP Fit Center  465 is at  -0.456092 -0.762818  2.143900
      ESP Fit Center  466 is at   0.375292 -0.158782  2.143900
      ESP Fit Center  467 is at  -3.379505 -3.577216 -0.020837
      ESP Fit Center  468 is at  -4.853328 -3.658597 -0.980837
      ESP Fit Center  469 is at  -3.893328 -3.915829 -0.980837
      ESP Fit Center  470 is at  -2.933328 -3.658597 -0.980837
      ESP Fit Center  471 is at  -5.238537 -2.973180 -1.940837
      ESP Fit Center  472 is at  -4.407152 -3.577216 -1.940837
      ESP Fit Center  473 is at  -3.379505 -3.577216 -1.940837
      ESP Fit Center  474 is at  -2.548120 -2.973180 -1.940837
      ESP Fit Center  475 is at  -2.933328 -1.995829 -2.643605
      ESP Fit Center  476 is at  -4.853328 -1.995829 -2.643605
      ESP Fit Center  477 is at  -4.373328 -2.827213 -2.643605
      ESP Fit Center  478 is at  -3.413328 -2.827213 -2.643605
      ESP Fit Center  479 is at  -3.893328 -1.995829 -2.900837
      ESP Fit Center  480 is at  -5.182903 -1.277773  1.830289
      ESP Fit Center  481 is at  -5.662903 -0.446388  1.573058
      ESP Fit Center  482 is at  -6.142903 -1.277773  1.573058
      ESP Fit Center  483 is at  -5.662903 -2.109157  1.573058
      ESP Fit Center  484 is at  -6.528111 -0.300422  0.870289
      ESP Fit Center  485 is at  -6.845672 -1.277773  0.870289
      ESP Fit Center  486 is at  -6.528111 -2.255124  0.870289
[...]
  446 Fit       0.130885
  447 Fit       0.130685
  448 Fit       0.140805
  449 Fit       0.127058
  450 Fit       0.129329
  451 Fit       0.137760
  452 Fit       0.127250
  453 Fit       0.129012
  454 Fit       0.137621
  455 Fit       0.131030
  456 Fit       0.119848
  457 Fit       0.109634
  458 Fit       0.119065
  459 Fit       0.133007
  460 Fit       0.139283
  461 Fit       0.126105
  462 Fit       0.111006
  463 Fit       0.126102
  464 Fit       0.143100
  465 Fit       0.114036
  466 Fit       0.096933
  467 Fit       0.148725
  468 Fit       0.146921
  469 Fit       0.146349
  470 Fit       0.154724
  471 Fit       0.146556
  472 Fit       0.145070
  473 Fit       0.149529
  474 Fit       0.161558
  475 Fit       0.154667
  476 Fit       0.140892
  477 Fit       0.143714
  478 Fit       0.148867
  479 Fit       0.144236
  480 Fit       0.154138
  481 Fit       0.170995
  482 Fit       0.153965
  483 Fit       0.145094
  484 Fit       0.171533
  485 Fit       0.152777
  486 Fit       0.145502
  487 Fit       0.142905
  488 Fit       0.162829
  489 Fit       0.150089
  490 Fit       0.145578
  491 Fit       0.146244
  492 Fit       0.154513
  493 Fit       0.146637
  494 Fit       0.146275
  495 Fit       0.097861
  496 Fit       0.104643
  497 Fit       0.104854
  498 Fit       0.110014
  499 Fit       0.108080
  500 Fit       0.109796
  501 Fit       0.115779
  502 Fit       0.108407
  503 Fit       0.109635
  504 Fit       0.112403
  505 Fit       0.109201
  506 Fit       0.104356
  507 Fit       0.107218
  508 Fit       0.136142
  509 Fit       0.154213
  510 Fit       0.140974
  511 Fit       0.133627
  512 Fit       0.155077
  513 Fit       0.142306
  514 Fit       0.151292
  515 Fit       0.141852
  516 Fit       0.171107
  517 Fit       0.150324
  518 Fit       0.149272
  519 Fit       0.147170
  520 Fit       0.151028
  521 Fit       0.147312
  522 Fit       0.151665
  523 Fit       0.164179
  524 Fit       0.146491
  525 Fit       0.148148
  526 Fit       0.155747
  527 Fit       0.175782
  528 Fit       0.144140
  529 Fit       0.147643
  530 Fit       0.157369
  531 Fit       0.145538
  532 Fit       0.155466
  533 Fit       0.144231
  534 Fit       0.152169
  535 Fit       0.147999
  536 Fit       0.145927
  537 Fit       0.148488
  538 Fit       0.156383
  539 Fit       0.149691
  540 Fit       0.148449
  541 Fit       0.154577
  542 Fit       0.149187
  543 Fit       0.152806
  544 Fit       0.153072
  545 Fit       0.074561
  546 Fit       0.083463
  547 Fit       0.075580
  548 Fit       0.091945
  549 Fit       0.085838
  550 Fit       0.134091
  551 Fit       0.132706
  552 Fit       0.133180
  553 Fit       0.057522
  554 Fit       0.083110
  555 Fit       0.067817
  556 Fit       0.076323
  557 Fit       0.084803
  558 Fit       0.065693
  559 Fit       0.069706
  560 Fit       0.067769
  561 Fit       0.084443
  562 Fit       0.071548
  563 Fit       0.091930
  564 Fit       0.082561
  565 Fit       0.089035
  566 Fit       0.094600
  567 Fit       0.123545
  568 Fit       0.107628
  569 Fit       0.127530
  570 Fit       0.144105
  571 Fit       0.130721
  572 Fit       0.130246
  573 Fit       0.124509
  574 Fit       0.127527
  575 Fit       0.128254
  576 Fit       0.131028
  577 Fit       0.144491
  578 Fit       0.135287
  579 Fit       0.142111
  580 Fit       0.137129
  581 Fit       0.133268
  582 Fit       0.128006
  583 Fit       0.126309
  584 Fit       0.128446
  585 Fit       0.134717
  586 Fit       0.140722
  587 Fit       0.130831
  588 Fit       0.123290
  589 Fit       0.123681
  590 Fit       0.129261
  591 Fit       0.082523
  592 Fit       0.085630
  593 Fit       0.090012
  594 Fit       0.090185
  595 Fit       0.094161
  596 Fit       0.093282
  597 Fit       0.099505
  598 Fit       0.122262
  599 Fit       0.132338
  600 Fit       0.123109
  601 Fit       0.114605
  602 Fit       0.130962
  603 Fit       0.147070
  604 Fit       0.136561
  605 Fit       0.130076
  606 Fit       0.127284
  607 Fit       0.131448
  608 Fit       0.126589
  609 Fit       0.125202
  610 Fit       0.128597
  611 Fit       0.135895
  612 Fit       0.136478
  613 Fit       0.136556
  614 Fit       0.136446
  615 Fit       0.140945
  616 Fit       0.138708
  617 Fit       0.136698
  618 Fit       0.134715
  619 Fit       0.129907
  620 Fit       0.133755
  621 Fit       0.126393
  622 Fit       0.132169
  623 Fit       0.133947
  624 Fit       0.130187
  625 Fit       0.039681
  626 Fit       0.038876
  627 Fit       0.046463
  628 Fit       0.051994
  629 Fit       0.049632
  630 Fit       0.039244
  631 Fit       0.033634
  632 Fit       0.049708
  633 Fit       0.061768
  634 Fit       0.073914
  635 Fit       0.063002
  636 Fit       0.048539
  637 Fit       0.037148
  638 Fit       0.033320
  639 Fit       0.038283
  640 Fit       0.059453
  641 Fit       0.044964
  642 Fit       0.039535
  643 Fit       0.043498
  644 Fit       0.074216
  645 Fit       0.056193
  646 Fit       0.052713
  647 Fit       0.070081
  648 Fit       0.061010
  649 Fit       0.063942
  650 Fit       0.067559
  651 Fit       0.067504
  652 Fit       0.050332
  653 Fit       0.059559
  654 Fit       0.065052
  655 Fit       0.068058
  656 Fit       0.072230
  657 Fit       0.077584
  658 Fit       0.060789
  659 Fit       0.062817
  660 Fit       0.066451
  661 Fit       0.069255
  662 Fit       0.073914
  663 Fit       0.081432
  664 Fit       0.065109
  665 Fit       0.057087
  666 Fit       0.059218
  667 Fit       0.061314
  668 Fit       0.062760
  669 Fit       0.066784
  670 Fit       0.067005
  671 Fit       0.065933
  672 Fit       0.064923
  673 Fit       0.065082
  674 Fit       0.076333
  675 Fit       0.071473
  676 Fit       0.068636
  677 Fit       0.067776
  678 Fit       0.077233
  679 Fit       0.072450
  680 Fit       0.070889
  681 Fit       0.074184
  682 Fit       0.081557
  683 Fit       0.097341
  684 Fit       0.072372
  685 Fit       0.077136
  686 Fit       0.087554
  687 Fit       0.071332
  688 Fit       0.076881
  689 Fit       0.085437
  690 Fit       0.099316
  691 Fit       0.093995
  692 Fit       0.082930
  693 Fit       0.076416
  694 Fit       0.084156
  695 Fit       0.096601
  696 Fit       0.095457
  697 Fit       0.092869
  698 Fit       0.115992
  699 Fit       0.093994
  700 Fit       0.115775
  701 Fit       0.122033
  702 Fit       0.127516
  703 Fit       0.130428
  704 Fit       0.115363
  705 Fit       0.101691
  706 Fit       0.095585
  707 Fit       0.100115
  708 Fit       0.104593
  709 Fit       0.109360
  710 Fit       0.113721
  711 Fit       0.110407
  712 Fit       0.101359
  713 Fit       0.104128
  714 Fit       0.094838
  715 Fit       0.101253
  716 Fit       0.116224
  717 Fit       0.096840
  718 Fit       0.097689
  719 Fit       0.105062
  720 Fit       0.120446
  721 Fit       0.100214
  722 Fit       0.102024
  723 Fit       0.111570
  724 Fit       0.105251
  725 Fit       0.107141
  726 Fit       0.117039
  727 Fit       0.109766
  728 Fit       0.083623
  729 Fit       0.072412
  730 Fit       0.084390
  731 Fit       0.097020
  732 Fit       0.106038
  733 Fit       0.084898
  734 Fit       0.081845
  735 Fit       0.087822
  736 Fit       0.097289
  737 Fit       0.113206
  738 Fit       0.128138
  739 Fit       0.135933
  740 Fit       0.123141
  741 Fit       0.130162
  742 Fit       0.121643
  743 Fit       0.121347
  744 Fit       0.128207
  745 Fit       0.121470
  746 Fit       0.122995
  747 Fit       0.132503
  748 Fit       0.125777
  749 Fit       0.113106
  750 Fit       0.102379
  751 Fit       0.112287
  752 Fit       0.126445
  753 Fit       0.132952
  754 Fit       0.119951
  755 Fit       0.104018
  756 Fit       0.118140
  757 Fit       0.130431
  758 Fit       0.102605
  759 Fit       0.141015
  760 Fit       0.134739
  761 Fit       0.136062
  762 Fit       0.145499
  763 Fit       0.134333
  764 Fit       0.134035
  765 Fit       0.139233
  766 Fit       0.151368
  767 Fit       0.144055
  768 Fit       0.132785
  769 Fit       0.137492
  770 Fit       0.134283
  771 Fit       0.142797
  772 Fit       0.135021
  773 Fit       0.147250
  774 Fit       0.136937
  775 Fit       0.133148
  776 Fit       0.161373
  777 Fit       0.142833
  778 Fit       0.135600
  779 Fit       0.133816
  780 Fit       0.136961
  781 Fit       0.138623
  782 Fit       0.134595
  783 Fit       0.137356
  784 Fit       0.097380
  785 Fit       0.097337
  786 Fit       0.101623
  787 Fit       0.100016
  788 Fit       0.101302
  789 Fit       0.106641
  790 Fit       0.100843
  791 Fit       0.101914
  792 Fit       0.105900
  793 Fit       0.098535
  794 Fit       0.100905
  795 Fit       0.139522
  796 Fit       0.127769
  797 Fit       0.139768
  798 Fit       0.129255
  799 Fit       0.155601
  800 Fit       0.137559
  801 Fit       0.130659
  802 Fit       0.140210
  803 Fit       0.137067
  804 Fit       0.136196
  805 Fit       0.137287
  806 Fit       0.144948
  807 Fit       0.136354
  808 Fit       0.135312
  809 Fit       0.139408
  810 Fit       0.150746
  811 Fit       0.135014
  812 Fit       0.140340
  813 Fit       0.154307
  814 Fit       0.136390
  815 Fit       0.144983
  816 Fit       0.134293
  817 Fit       0.141435
  818 Fit       0.136724
  819 Fit       0.135188
  820 Fit       0.139076
  821 Fit       0.136740
  822 Fit       0.145347
  823 Fit       0.138952
  824 Fit       0.139627
  825 Fit       0.069679
  826 Fit       0.084969
  827 Fit       0.091349
  828 Fit       0.084300
  829 Fit       0.125764
  830 Fit       0.124485
  831 Fit       0.125761
  832 Fit       0.054211
  833 Fit       0.059551
  834 Fit       0.077561
  835 Fit       0.062213
  836 Fit       0.064912
  837 Fit       0.068278
  838 Fit       0.063279
  839 Fit       0.065719
  840 Fit       0.082130
  841 Fit       0.069524
  842 Fit       0.088918
  843 Fit       0.080342
  844 Fit       0.118054
  845 Fit       0.099313
  846 Fit       0.083732
  847 Fit       0.088449
  848 Fit       0.096678
  849 Fit       0.111003
  850 Fit       0.090022
  851 Fit       0.118677
  852 Fit       0.129949
  853 Fit       0.133290
  854 Fit       0.123487
  855 Fit       0.123698
  856 Fit       0.123802
  857 Fit       0.117742
  858 Fit       0.120329
  859 Fit       0.121537
  860 Fit       0.118371
  861 Fit       0.121843
  862 Fit       0.132814
  863 Fit       0.125137
  864 Fit       0.122531
  865 Fit       0.125445
  866 Fit       0.125941
  867 Fit       0.129284
  868 Fit       0.125901
  869 Fit       0.124492
  870 Fit       0.124234
  871 Fit       0.124555
  872 Fit       0.119953
  873 Fit       0.117916
  874 Fit       0.119055
  875 Fit       0.123806
  876 Fit       0.130384
  877 Fit       0.123644
  878 Fit       0.117664
  879 Fit       0.117103
  880 Fit       0.123712
  881 Fit       0.121698
  882 Fit       0.079513
  883 Fit       0.080477
  884 Fit       0.083725
  885 Fit       0.086187
  886 Fit       0.087546
  887 Fit       0.089146
  888 Fit       0.101517
  889 Fit       0.092926
  890 Fit       0.090488
  891 Fit       0.095403
  892 Fit       0.115772
  893 Fit       0.122628
  894 Fit       0.113496
  895 Fit       0.130396
  896 Fit       0.124608
  897 Fit       0.136299
  898 Fit       0.128226
  899 Fit       0.124238
  900 Fit       0.119714
  901 Fit       0.126736
  902 Fit       0.121951
  903 Fit       0.118845
  904 Fit       0.118447
  905 Fit       0.120962
  906 Fit       0.124519
  907 Fit       0.124395
  908 Fit       0.125037
  909 Fit       0.125583
  910 Fit       0.125483
  911 Fit       0.127883
  912 Fit       0.127671
  913 Fit       0.127506
  914 Fit       0.124278
  915 Fit       0.127727
  916 Fit       0.121227
  917 Fit       0.123201
  918 Fit       0.120426
  919 Fit       0.123589
  920 Fit       0.132322
  921 Fit       0.127968
  922 Fit       0.124248
  923 Fit       0.044251
  924 Fit       0.042454
  925 Fit       0.049023
  926 Fit       0.054651
  927 Fit       0.053107
  928 Fit       0.043977
  929 Fit       0.038766
  930 Fit       0.048638
  931 Fit       0.054870
  932 Fit       0.058965
  933 Fit       0.064876
  934 Fit       0.075138
  935 Fit       0.069853
  936 Fit       0.059099
  937 Fit       0.047683
  938 Fit       0.039852
  939 Fit       0.037690
  940 Fit       0.041278
  941 Fit       0.071049
  942 Fit       0.055073
  943 Fit       0.044773
  944 Fit       0.041076
  945 Fit       0.043723
  946 Fit       0.071533
  947 Fit       0.056339
  948 Fit       0.049741
  949 Fit       0.076421
  950 Fit       0.063112
  951 Fit       0.058200
  952 Fit       0.060574
  953 Fit       0.063789
  954 Fit       0.063387
  955 Fit       0.049438
  956 Fit       0.056795
  957 Fit       0.061525
  958 Fit       0.064306
  959 Fit       0.068100
  960 Fit       0.072397
  961 Fit       0.057384
  962 Fit       0.059484
  963 Fit       0.062571
  964 Fit       0.065023
  965 Fit       0.068850
  966 Fit       0.074510
  967 Fit       0.061219
  968 Fit       0.064855
  969 Fit       0.067530
  970 Fit       0.072431
  971 Fit       0.054633
  972 Fit       0.057553
  973 Fit       0.059752
  974 Fit       0.059443
  975 Fit       0.061297
  976 Fit       0.061000
  977 Fit       0.060717
  978 Fit       0.061666
  979 Fit       0.070434
  980 Fit       0.066923
  981 Fit       0.064479
  982 Fit       0.063169
  983 Fit       0.063459
  984 Fit       0.075854
  985 Fit       0.070067
  986 Fit       0.066869
  987 Fit       0.066169
  988 Fit       0.075632
  989 Fit       0.070923
  990 Fit       0.067991
  991 Fit       0.071096
  992 Fit       0.077549
  993 Fit       0.090259
  994 Fit       0.070108
  995 Fit       0.074483
  996 Fit       0.083830
  997 Fit       0.069241
  998 Fit       0.074408
  999 Fit       0.081735
 1000 Fit       0.092851
 1001 Fit       0.089825
 1002 Fit       0.080526
 1003 Fit       0.074357
 1004 Fit       0.081000
 1005 Fit       0.091101
 1006 Fit       0.087895
 1007 Fit       0.106969
 1008 Fit       0.116279
 1009 Fit       0.090361
 1010 Fit       0.112927
 1011 Fit       0.094668
 1012 Fit       0.106616
 1013 Fit       0.109110
 1014 Fit       0.114492
 1015 Fit       0.119975
 1016 Fit       0.121138
 1017 Fit       0.109078
 1018 Fit       0.098229
 1019 Fit       0.093945
 1020 Fit       0.096864
 1021 Fit       0.100355
 1022 Fit       0.104548
 1023 Fit       0.108345
 1024 Fit       0.105394
 1025 Fit       0.097918
 1026 Fit       0.100204
 1027 Fit       0.098360
 1028 Fit       0.091427
 1029 Fit       0.092339
 1030 Fit       0.098584
 1031 Fit       0.111628
 1032 Fit       0.095204
 1033 Fit       0.093672
 1034 Fit       0.098306
 1035 Fit       0.109071
 1036 Fit       0.097050
 1037 Fit       0.098400
 1038 Fit       0.106801
 1039 Fit       0.101524
 1040 Fit       0.103362
 1041 Fit       0.105961
 1042 Fit       0.080599
 1043 Fit       0.070422
 1044 Fit       0.080941
 1045 Fit       0.092246
 1046 Fit       0.099319
 1047 Fit       0.082081
 1048 Fit       0.077777
 1049 Fit       0.083736
 1050 Fit       0.092708
 1051 Fit       0.106949
 1052 Fit       0.133726
 1053 Fit       0.118984
 1054 Fit       0.125277
 1055 Fit       0.115829
 1056 Fit       0.118494
 1057 Fit       0.127310
 1058 Fit       0.115884
 1059 Fit       0.115282
 1060 Fit       0.121122
 1061 Fit       0.116602
 1062 Fit       0.117845
 1063 Fit       0.126295
 1064 Fit       0.121040
 1065 Fit       0.107272
 1066 Fit       0.097408
 1067 Fit       0.106168
 1068 Fit       0.118187
 1069 Fit       0.123444
 1070 Fit       0.113032
 1071 Fit       0.099244
 1072 Fit       0.110535
 1073 Fit       0.121642
 1074 Fit       0.114014
 1075 Fit       0.095887
 1076 Fit       0.125821
 1077 Fit       0.128219
 1078 Fit       0.139041
 1079 Fit       0.126831
 1080 Fit       0.124650
 1081 Fit       0.127427
 1082 Fit       0.136241
 1083 Fit       0.124377
 1084 Fit       0.124453
 1085 Fit       0.128876
 1086 Fit       0.138197
 1087 Fit       0.133431
 1088 Fit       0.123899
 1089 Fit       0.127767
 1090 Fit       0.126020
 1091 Fit       0.133784
 1092 Fit       0.127472
 1093 Fit       0.137684
 1094 Fit       0.128032
 1095 Fit       0.124438
 1096 Fit       0.141123
 1097 Fit       0.129703
 1098 Fit       0.124967
 1099 Fit       0.124183
 1100 Fit       0.136175
 1101 Fit       0.127716
 1102 Fit       0.124814
 1103 Fit       0.126329
 1104 Fit       0.128657
 1105 Fit       0.125813
 1106 Fit       0.090171
 1107 Fit       0.089800
 1108 Fit       0.093329
 1109 Fit       0.092617
 1110 Fit       0.092432
 1111 Fit       0.095720
 1112 Fit       0.093892
 1113 Fit       0.095377
 1114 Fit       0.100307
 1115 Fit       0.094585
 1116 Fit       0.095774
 1117 Fit       0.099824
 1118 Fit       0.093738
 1119 Fit       0.095781
 1120 Fit       0.128700
 1121 Fit       0.117859
 1122 Fit       0.138374
 1123 Fit       0.124929
 1124 Fit       0.116044
 1125 Fit       0.129757
 1126 Fit       0.121128
 1127 Fit       0.145890
 1128 Fit       0.129658
 1129 Fit       0.132335
 1130 Fit       0.127342
 1131 Fit       0.127584
 1132 Fit       0.133473
 1133 Fit       0.126119
 1134 Fit       0.126955
 1135 Fit       0.132507
 1136 Fit       0.145632
 1137 Fit       0.125580
 1138 Fit       0.127807
 1139 Fit       0.135024
 1140 Fit       0.126619
 1141 Fit       0.131380
 1142 Fit       0.143653
 1143 Fit       0.136190
 1144 Fit       0.125939
 1145 Fit       0.130855
 1146 Fit       0.127075
 1147 Fit       0.125972
 1148 Fit       0.128791
 1149 Fit       0.126883
 1150 Fit       0.135273
 1151 Fit       0.129565
 1152 Fit       0.128665
 1153 Fit       0.132239
 -----------------------------------------------------------------
 Leave Link  602 at Sun Feb 18 17:06:23 2018, MaxMem=   33554432 cpu:       0.4

 Test job not archived.
 1\1\GINC-NODE029\SP\RHF\6-31G(d)\C6H15N4O1(1+)\WULSDORT\18-Feb-2018\0\
 \#HF/6-31G* Geom=AllCheck Guess=Read Pop=(MK,ReadRadii) Integral=(Grid
 =UltraFine) iop(6/33=2)\\Optimization for frag1-conf0\\1,1\C,0,-3.3131
 364076,-0.8370689313,0.433635391\C,0,2.7476812452,0.6267430913,2.81059
 59261\C,0,-4.5836078744,-0.7131481802,-0.3843984574\C,0,-0.2246024721,
 -0.5017957143,0.8520077338\C,0,-1.0534418927,-1.7707543476,0.578774914
 5\C,0,0.9233065514,-0.7708944423,1.8257524401\N,0,3.3181194585,1.83618
 77789,2.9450197255\N,0,-2.2593514533,-1.4747926401,-0.1744849523\N,0,1
 .5759940977,0.5023529002,2.1893532896\N,0,3.3832175949,-0.4519709722,3
 .2886117613\O,0,-3.2109641986,-0.4037930779,1.576965487\H,0,-5.3514999
 502,-1.3584770507,0.055563699\H,0,-4.9475187123,0.3155730664,-0.320041
 7285\H,0,-4.4565619545,-0.9857465055,-1.4363361008\H,0,-0.9079810873,0
 .2309431382,1.2946148478\H,0,0.1663344816,-0.0940912422,-0.0874580085\
 H,0,-0.4690528239,-2.5053516099,0.0159343266\H,0,-1.3382626263,-2.2230
 862934,1.5370978242\H,0,1.6793231248,-1.424969579,1.3754467497\H,0,0.5
 359748159,-1.2532721655,2.7333081117\H,0,2.9658743078,2.6411369235,2.4
 462035692\H,0,4.0648896973,1.9947582603,3.6068377767\H,0,-2.3822298291
 ,-1.8870451882,-1.0877118902\H,0,1.0284123967,1.343413717,2.0503676973
 \H,0,4.3493029719,-0.4063463071,3.5806931289\H,0,2.911791352,-1.340294
 6657,3.3787174335\\Version=AM64L-G09RevC.01\State=1-A\HF=-528.4411301\
 RMSD=4.805e-09\Dipole=4.738621,0.8125999,0.8583761\Quadrupole=17.59608
 36,-7.7046449,-9.8914387,13.4828102,27.6417025,6.5583392\PG=C01 [X(C6H
 15N4O1)]\\@


 THOSE WHO ASPIRE NOT TO GUESS AND DIVINE,
 BUT TO DISCOVER AND KNOW, WHO PROPOSE NOT TO DEVISE 
 MIMIC AND FABULOUS WORLDS OF THEIR OWN, BUT TO 
 EXAMINE AND DISSECT THE NATURE OF THIS VERY WORLD 
 ITSELF, MUST GO TO THE FACTS THEMSELVES FOR EVERYTHING.

                               -- FRANCIS BACON, 1620
 Job cpu time:  0 days  0 hours  1 minutes 16.5 seconds.
 File lengths (MBytes):  RWF=     25 Int=      0 D2E=      0 Chk=      4 Scr=      1
 Normal termination of Gaussian 09 at Sun Feb 18 17:06:23 2018.
