 Entering Gaussian System, Link 0=g09
 Initial command:
 /home/fb_chem/chemsoft/lx24-amd64/Gaussian_09_C.01_NBO_3.1_64_istanbul-64/g09/l1.exe /local/2659150.1.parallel/Gau-16433.inp -scrdir=/local/2659150.1.parallel/
 Entering Link 1 = /home/fb_chem/chemsoft/lx24-amd64/Gaussian_09_C.01_NBO_3.1_64_istanbul-64/g09/l1.exe PID=     16438.
  
 Copyright (c) 1988,1990,1992,1993,1995,1998,2003,2009,2011,
            Gaussian, Inc.  All Rights Reserved.
  
 This is part of the Gaussian(R) 09 program.  It is based on
 the Gaussian(R) 03 system (copyright 2003, Gaussian, Inc.),
 the Gaussian(R) 98 system (copyright 1998, Gaussian, Inc.),
 the Gaussian(R) 94 system (copyright 1995, Gaussian, Inc.),
 the Gaussian 92(TM) system (copyright 1992, Gaussian, Inc.),
 the Gaussian 90(TM) system (copyright 1990, Gaussian, Inc.),
 the Gaussian 88(TM) system (copyright 1988, Gaussian, Inc.),
 the Gaussian 86(TM) system (copyright 1986, Carnegie Mellon
 University), and the Gaussian 82(TM) system (copyright 1983,
 Carnegie Mellon University). Gaussian is a federally registered
 trademark of Gaussian, Inc.
  
 This software contains proprietary and confidential information,
 including trade secrets, belonging to Gaussian, Inc.
  
 This software is provided under written license and may be
 used, copied, transmitted, or stored only in accord with that
 written license.
  
 The following legend is applicable only to US Government
 contracts under FAR:
  
                    RESTRICTED RIGHTS LEGEND
  
 Use, reproduction and disclosure by the US Government is
 subject to restrictions as set forth in subparagraphs (a)
 and (c) of the Commercial Computer Software - Restricted
 Rights clause in FAR 52.227-19.
  
 Gaussian, Inc.
 340 Quinnipiac St., Bldg. 40, Wallingford CT 06492
  
  
 ---------------------------------------------------------------
 Warning -- This program may not be used in any manner that
 competes with the business of Gaussian, Inc. or will provide
 assistance to any competitor of Gaussian, Inc.  The licensee
 of this program is prohibited from giving any competitor of
 Gaussian, Inc. access to this program.  By using this program,
 the user acknowledges that Gaussian, Inc. is engaged in the
 business of creating and licensing software in the field of
 computational chemistry and represents and warrants to the
 licensee that it is not a competitor of Gaussian, Inc. and that
 it will not use this program in any manner prohibited above.
 ---------------------------------------------------------------
  

 Cite this work as:
 Gaussian 09, Revision C.01,
 M. J. Frisch, G. W. Trucks, H. B. Schlegel, G. E. Scuseria, 
 M. A. Robb, J. R. Cheeseman, G. Scalmani, V. Barone, B. Mennucci, 
 G. A. Petersson, H. Nakatsuji, M. Caricato, X. Li, H. P. Hratchian, 
 A. F. Izmaylov, J. Bloino, G. Zheng, J. L. Sonnenberg, M. Hada, 
 M. Ehara, K. Toyota, R. Fukuda, J. Hasegawa, M. Ishida, T. Nakajima, 
 Y. Honda, O. Kitao, H. Nakai, T. Vreven, J. A. Montgomery, Jr., 
 J. E. Peralta, F. Ogliaro, M. Bearpark, J. J. Heyd, E. Brothers, 
 K. N. Kudin, V. N. Staroverov, T. Keith, R. Kobayashi, J. Normand, 
 K. Raghavachari, A. Rendell, J. C. Burant, S. S. Iyengar, J. Tomasi, 
 M. Cossi, N. Rega, J. M. Millam, M. Klene, J. E. Knox, J. B. Cross, 
 V. Bakken, C. Adamo, J. Jaramillo, R. Gomperts, R. E. Stratmann, 
 O. Yazyev, A. J. Austin, R. Cammi, C. Pomelli, J. W. Ochterski, 
 R. L. Martin, K. Morokuma, V. G. Zakrzewski, G. A. Voth, 
 P. Salvador, J. J. Dannenberg, S. Dapprich, A. D. Daniels, 
 O. Farkas, J. B. Foresman, J. V. Ortiz, J. Cioslowski, 
 and D. J. Fox, Gaussian, Inc., Wallingford CT, 2010.
 
 ******************************************
 Gaussian 09:  AM64L-G09RevC.01 23-Sep-2011
                24-Aug-2018 
 ******************************************
 %nprocs=2
 Will use up to    2 processors via shared memory.
 %chk=frag43-conf0.chk
 ----------------------------------------------------------------------
 #HF/6-31G* Geom=AllCheck Guess=Read Pop=(MK,ReadRadii) Integral=(Grid=
 UltraFine) iop(6/33=2)
 ----------------------------------------------------------------------
 1/29=7,38=1/1;
 2/12=2,40=1/2;
 3/5=1,6=6,7=1,11=9,14=-4,16=1,25=1,30=1,75=-5,116=-2/1,2,3;
 4/5=1/1;
 5/5=2,38=6/2;
 6/7=2,8=2,9=2,10=2,15=8,20=101,28=1,33=2/1,2;
 99/5=1,9=1/99;
 Structure from the checkpoint file:  frag43-conf0.chk
 -----------------------------
 Optimization for frag43-conf0
 -----------------------------
 Charge =  1 Multiplicity = 1
 Redundant internal coordinates found in file.
 N,0,2.6775321093,-1.0525569997,-0.5945617459
 C,0,2.6026884841,0.1202286231,0.0645807186
 N,0,1.6952124792,0.2120811327,1.0566347452
 H,0,1.3527224426,1.103401671,1.3823236664
 H,0,1.3135280656,-0.6180147044,1.4877180799
 N,0,3.3923703119,1.1454708322,-0.2537249283
 C,0,4.0728903846,1.2679247456,-1.5666528168
 C,0,3.715650935,2.6083886607,-2.2269946491
 C,0,3.9896997273,3.8003001571,-1.3003482328
 C,0,3.2879576044,3.6125923156,0.0525907456
 C,0,3.6799506297,2.2691377448,0.6733850371
 H,0,1.9200196995,-1.7196862898,-0.5521962519
 H,0,3.5079377843,-1.3241896649,-1.0995610559
 H,0,3.7659784244,0.4424869422,-2.2100896104
 H,0,5.1539276489,1.1908982661,-1.3957199529
 H,0,2.6558531268,2.5886239511,-2.5114175685
 H,0,4.2941178779,2.6937926708,-3.1534030861
 H,0,3.6554475208,4.727866264,-1.7754122779
 H,0,5.0715682278,3.9017604008,-1.1380403025
 H,0,2.1981162254,3.6571160971,-0.0752096986
 H,0,3.5636873828,4.4112678502,0.7496816557
 H,0,3.1885144328,2.0865119737,1.6297410081
 H,0,4.7612037143,2.2446252482,0.8617055025
 Recover connectivity data from disk.
                          Input orientation:                          
 ---------------------------------------------------------------------
 Center     Atomic      Atomic             Coordinates (Angstroms)
 Number     Number       Type             X           Y           Z
 ---------------------------------------------------------------------
      1          7           0        2.677532   -1.052557   -0.594562
      2          6           0        2.602688    0.120229    0.064581
      3          7           0        1.695212    0.212081    1.056635
      4          1           0        1.352722    1.103402    1.382324
      5          1           0        1.313528   -0.618015    1.487718
      6          7           0        3.392370    1.145471   -0.253725
      7          6           0        4.072890    1.267925   -1.566653
      8          6           0        3.715651    2.608389   -2.226995
      9          6           0        3.989700    3.800300   -1.300348
     10          6           0        3.287958    3.612592    0.052591
     11          6           0        3.679951    2.269138    0.673385
     12          1           0        1.920020   -1.719686   -0.552196
     13          1           0        3.507938   -1.324190   -1.099561
     14          1           0        3.765978    0.442487   -2.210090
     15          1           0        5.153928    1.190898   -1.395720
     16          1           0        2.655853    2.588624   -2.511418
     17          1           0        4.294118    2.693793   -3.153403
     18          1           0        3.655448    4.727866   -1.775412
     19          1           0        5.071568    3.901760   -1.138040
     20          1           0        2.198116    3.657116   -0.075210
     21          1           0        3.563687    4.411268    0.749682
     22          1           0        3.188514    2.086512    1.629741
     23          1           0        4.761204    2.244625    0.861706
 ---------------------------------------------------------------------
                    Distance matrix (angstroms):
                    1          2          3          4          5
     1  N    0.000000
     2  C    1.347404   0.000000
     3  N    2.300155   1.347635   0.000000
     4  H    3.211130   2.065306   1.008873   0.000000
     5  H    2.526900   2.057245   1.010235   1.725085   0.000000
     6  N    2.336341   1.332681   2.338505   2.615069   3.234825
     7  C    2.876912   2.477826   3.694563   4.015326   4.527696
     8  C    4.140658   3.561031   4.539458   4.568982   5.475305
     9  C    5.076430   4.162903   4.867788   4.628568   5.869984
    10  C    4.749215   3.558980   3.886955   3.436475   4.884260
    11  C    3.694075   2.479707   2.884016   2.697689   3.820830
    12  H    1.010288   2.057119   2.524005   3.469008   2.396406
    13  H    1.009149   2.064230   3.208626   4.086307   3.465275
    14  H    2.455566   2.575115   3.874616   4.377904   4.562122
    15  H    3.436202   3.128519   4.351418   4.708964   5.131769
    16  H    4.114973   3.568132   4.393380   4.366378   5.298816
    17  H    4.816239   4.454165   5.535126   5.635066   6.433661
    18  H    5.980303   5.071903   5.679377   5.330158   6.686632
    19  H    5.529199   4.673505   5.461695   5.292718   6.437844
    20  H    4.762414   3.562695   3.660908   3.059502   4.637023
    21  H    5.696108   4.450382   4.606364   4.028719   5.558921
    22  H    3.881028   2.580540   2.464121   2.097106   3.293966
    23  H    4.163390   3.131718   3.683685   3.631966   4.524717
                    6          7          8          9         10
     6  N    0.000000
     7  C    1.483874   0.000000
     8  C    2.477586   1.536397   0.000000
     9  C    2.915535   2.547698   1.534415   0.000000
    10  C    2.488256   2.955594   2.527421   1.535617   0.000000
    11  C    1.484878   2.484874   2.920371   2.517146   1.530985
    12  H    3.235124   3.819659   4.976090   5.942521   5.538070
    13  H    2.613048   2.693771   4.096269   5.151000   5.074215
    14  H    2.112139   1.090667   2.166552   3.486057   3.924002
    15  H    2.099833   1.097175   2.183789   2.858933   3.382906
    16  H    2.778907   2.155185   1.097478   2.171174   2.832350
    17  H    3.408604   2.144718   1.095514   2.179643   3.483525
    18  H    3.901064   3.491280   2.167888   1.094436   2.172667
    19  H    3.346469   2.849238   2.167289   1.098671   2.163906
    20  H    2.786839   3.383403   2.834241   2.175141   1.098212
    21  H    3.420761   3.937677   3.483399   2.181144   1.095374
    22  H    2.115315   3.416012   3.927421   3.487749   2.196864
    23  H    2.079911   2.706408   3.281093   2.773052   2.167131
                   11         12         13         14         15
    11  C    0.000000
    12  H    4.528810   0.000000
    13  H    4.010602   1.725546   0.000000
    14  H    3.414452   3.291074   2.102619   0.000000
    15  H    2.759783   4.431839   3.020374   1.774745   0.000000
    16  H    3.360627   4.789732   4.246116   2.434970   3.072262
    17  H    3.898954   5.646363   4.580451   2.497428   2.467269
    18  H    3.470238   6.788144   6.091462   4.308786   3.860020
    19  H    2.807725   6.471177   5.454995   3.849731   2.724327
    20  H    2.163957   5.405077   5.251508   4.165302   4.069742
    21  H    2.146639   6.479593   6.026465   4.955037   4.183586
    22  H    1.090632   4.566955   4.379955   4.216703   3.717309
    23  H    1.097804   5.078111   4.260714   3.697851   2.522012
                   16         17         18         19         20
    16  H    0.000000
    17  H    1.762702   0.000000
    18  H    2.473308   2.538546   0.000000
    19  H    3.073463   2.474935   1.759003   0.000000
    20  H    2.699316   3.846621   2.482138   3.073465   0.000000
    21  H    3.844602   4.326352   2.546518   2.469169   1.764646
    22  H    4.205358   4.946677   4.334726   3.808101   2.520822
    23  H    3.991090   4.067065   3.787291   2.615608   3.072842
                   21         22         23
    21  H    0.000000
    22  H    2.513911   0.000000
    23  H    2.478091   1.757336   0.000000
 Stoichiometry    C6H14N3(1+)
 Framework group  C1[X(C6H14N3)]
 Deg. of freedom    63
 Full point group                 C1      NOp   1
 Largest Abelian subgroup         C1      NOp   1
 Largest concise Abelian subgroup C1      NOp   1
                         Standard orientation:                         
 ---------------------------------------------------------------------
 Center     Atomic      Atomic             Coordinates (Angstroms)
 Number     Number       Type             X           Y           Z
 ---------------------------------------------------------------------
      1          7           0       -2.446194   -1.036154    0.014586
      2          6           0       -1.635952    0.039449   -0.031059
      3          7           0       -2.178247    1.201625   -0.445046
      4          1           0       -1.610747    1.954132   -0.804910
      5          1           0       -3.178587    1.341558   -0.427353
      6          7           0       -0.352347   -0.044835    0.317209
      7          6           0        0.396164   -1.325618    0.351981
      8          6           0        1.654767   -1.229111   -0.523872
      9          6           0        2.524694   -0.020344   -0.154360
     10          6           0        1.698809    1.274068   -0.177440
     11          6           0        0.461911    1.131936    0.713513
     12          1           0       -3.318012   -1.049812   -0.495735
     13          1           0       -2.238045   -1.831546    0.599743
     14          1           0       -0.247386   -2.129096   -0.008325
     15          1           0        0.660277   -1.534718    1.396162
     16          1           0        1.347069   -1.164049   -1.575322
     17          1           0        2.216957   -2.162705   -0.412095
     18          1           0        3.370186    0.056954   -0.844981
     19          1           0        2.949523   -0.162982    0.848761
     20          1           0        1.389741    1.509357   -1.204662
     21          1           0        2.291335    2.121861    0.183120
     22          1           0       -0.164401    2.024801    0.711976
     23          1           0        0.767253    0.959513    1.753806
 ---------------------------------------------------------------------
 Rotational constants (GHZ):      2.9236517      1.1889785      0.9339032
 Standard basis: 6-31G(d) (6D, 7F)
 There are   163 symmetry adapted basis functions of A   symmetry.
 Integral buffers will be    131072 words long.
 Raffenetti 1 integral format.
 Two-electron integral symmetry is turned on.
   163 basis functions,   308 primitive gaussians,   163 cartesian basis functions
    35 alpha electrons       35 beta electrons
       nuclear repulsion energy       495.9309631143 Hartrees.
 NAtoms=   23 NActive=   23 NUniq=   23 SFac= 1.00D+00 NAtFMM=   60 NAOKFM=F Big=F
 One-electron integrals computed using PRISM.
 NBasis=   163 RedAO= T  NBF=   163
 NBsUse=   163 1.00D-06 NBFU=   163
 Initial guess read from the checkpoint file:  frag43-conf0.chk
 B after Tr=     0.000000    0.000000    0.000000
         Rot=    1.000000    0.000000    0.000000    0.000000 Ang=   0.00 deg.
 Initial guess orbital symmetries:
       Occupied  (A) (A) (A) (A) (A) (A) (A) (A) (A) (A) (A) (A)
                 (A) (A) (A) (A) (A) (A) (A) (A) (A) (A) (A) (A)
                 (A) (A) (A) (A) (A) (A) (A) (A) (A) (A) (A)
       Virtual   (A) (A) (A) (A) (A) (A) (A) (A) (A) (A) (A) (A)
                 (A) (A) (A) (A) (A) (A) (A) (A) (A) (A) (A) (A)
                 (A) (A) (A) (A) (A) (A) (A) (A) (A) (A) (A) (A)
                 (A) (A) (A) (A) (A) (A) (A) (A) (A) (A) (A) (A)
                 (A) (A) (A) (A) (A) (A) (A) (A) (A) (A) (A) (A)
                 (A) (A) (A) (A) (A) (A) (A) (A) (A) (A) (A) (A)
                 (A) (A) (A) (A) (A) (A) (A) (A) (A) (A) (A) (A)
                 (A) (A) (A) (A) (A) (A) (A) (A) (A) (A) (A) (A)
                 (A) (A) (A) (A) (A) (A) (A) (A) (A) (A) (A) (A)
                 (A) (A) (A) (A) (A) (A) (A) (A) (A) (A) (A) (A)
                 (A) (A) (A) (A) (A) (A) (A) (A)
 Requested convergence on RMS density matrix=1.00D-08 within 128 cycles.
 Requested convergence on MAX density matrix=1.00D-06.
 Requested convergence on             energy=1.00D-06.
 No special actions if energy rises.
 SCF Done:  E(RHF) =  -398.531504602     A.U. after   12 cycles
             Convg  =    0.6527D-08             -V/T =  2.0025

 **********************************************************************

            Population analysis using the SCF density.

 **********************************************************************

 Orbital symmetries:
 BldTbl:  Degeneracy threshold= 1.00D-02
       Occupied  (A) (A) (A) (A) (A) (A) (A) (A) (A) (A) (A) (A)
                 (A) (A) (A) (A) (A) (A) (A) (A) (A) (A) (A) (A)
                 (A) (A) (A) (A) (A) (A) (A) (A) (A) (A) (A)
       Virtual   (A) (A) (A) (A) (A) (A) (A) (A) (A) (A) (A) (A)
                 (A) (A) (A) (A) (A) (A) (A) (A) (A) (A) (A) (A)
                 (A) (A) (A) (A) (A) (A) (A) (A) (A) (A) (A) (A)
                 (A) (A) (A) (A) (A) (A) (A) (A) (A) (A) (A) (A)
                 (A) (A) (A) (A) (A) (A) (A) (A) (A) (A) (A) (A)
                 (A) (A) (A) (A) (A) (A) (A) (A) (A) (A) (A) (A)
                 (A) (A) (A) (A) (A) (A) (A) (A) (A) (A) (A) (A)
                 (A) (A) (A) (A) (A) (A) (A) (A) (A) (A) (A) (A)
                 (A) (A) (A) (A) (A) (A) (A) (A) (A) (A) (A) (A)
                 (A) (A) (A) (A) (A) (A) (A) (A) (A) (A) (A) (A)
                 (A) (A) (A) (A) (A) (A) (A) (A)
 The electronic state is 1-A.
 Alpha  occ. eigenvalues --  -15.77953 -15.77861 -15.77857 -11.58369 -11.42326
 Alpha  occ. eigenvalues --  -11.42290 -11.36281 -11.36157 -11.35189  -1.52124
 Alpha  occ. eigenvalues --   -1.39990  -1.36995  -1.22147  -1.17732  -1.09779
 Alpha  occ. eigenvalues --   -1.01030  -1.00054  -0.94764  -0.92127  -0.90107
 Alpha  occ. eigenvalues --   -0.85971  -0.84070  -0.79243  -0.77427  -0.76143
 Alpha  occ. eigenvalues --   -0.72626  -0.72046  -0.71281  -0.68099  -0.64394
 Alpha  occ. eigenvalues --   -0.62485  -0.60755  -0.59923  -0.59724  -0.54117
 Alpha virt. eigenvalues --    0.00827   0.03832   0.07679   0.08648   0.11492
 Alpha virt. eigenvalues --    0.12083   0.13056   0.15160   0.16386   0.16735
 Alpha virt. eigenvalues --    0.17778   0.19305   0.20002   0.20655   0.20767
 Alpha virt. eigenvalues --    0.23077   0.25266   0.26452   0.27284   0.29801
 Alpha virt. eigenvalues --    0.30400   0.33301   0.39863   0.40260   0.54962
 Alpha virt. eigenvalues --    0.55684   0.58845   0.60220   0.60621   0.61120
 Alpha virt. eigenvalues --    0.62529   0.65000   0.68397   0.71354   0.72143
 Alpha virt. eigenvalues --    0.73757   0.74389   0.77106   0.79507   0.82167
 Alpha virt. eigenvalues --    0.82615   0.85534   0.88159   0.88644   0.90258
 Alpha virt. eigenvalues --    0.94204   0.96201   0.97580   0.99203   0.99399
 Alpha virt. eigenvalues --    1.00715   1.01263   1.01803   1.03354   1.03472
 Alpha virt. eigenvalues --    1.05212   1.06533   1.07621   1.09202   1.10672
 Alpha virt. eigenvalues --    1.11676   1.14317   1.21654   1.25728   1.27318
 Alpha virt. eigenvalues --    1.32923   1.36808   1.39936   1.42111   1.44830
 Alpha virt. eigenvalues --    1.49230   1.53883   1.58911   1.67576   1.68511
 Alpha virt. eigenvalues --    1.71221   1.72450   1.76667   1.77506   1.82611
 Alpha virt. eigenvalues --    1.89228   1.94671   1.96024   1.99385   2.04477
 Alpha virt. eigenvalues --    2.07048   2.08424   2.09113   2.14053   2.14555
 Alpha virt. eigenvalues --    2.16152   2.19436   2.20899   2.21937   2.28605
 Alpha virt. eigenvalues --    2.32688   2.35908   2.39572   2.41714   2.45811
 Alpha virt. eigenvalues --    2.49794   2.52335   2.52555   2.55468   2.57945
 Alpha virt. eigenvalues --    2.61442   2.63373   2.64590   2.74243   2.75669
 Alpha virt. eigenvalues --    2.81714   2.83827   2.84400   2.88404   2.92056
 Alpha virt. eigenvalues --    2.95284   2.96630   3.25235   3.36354   4.04710
 Alpha virt. eigenvalues --    4.08988   4.31511   4.44701   4.51847   4.53790
 Alpha virt. eigenvalues --    4.74711   4.83688   4.85254
          Condensed to atoms (all electrons):
              1          2          3          4          5          6
     1  N    7.043339   0.403930  -0.085328   0.002574   0.000849  -0.075626
     2  C    0.403930   3.845723   0.401852  -0.018236  -0.020271   0.460832
     3  N   -0.085328   0.401852   7.045501   0.318439   0.319501  -0.075462
     4  H    0.002574  -0.018236   0.318439   0.263300  -0.009362  -0.000996
     5  H    0.000849  -0.020271   0.319501  -0.009362   0.266279   0.002388
     6  N   -0.075626   0.460832  -0.075462  -0.000996   0.002388   7.316590
     7  C   -0.007311  -0.033273   0.001938  -0.000056  -0.000042   0.169182
     8  C    0.000289   0.001321  -0.000020  -0.000006   0.000000  -0.057121
     9  C   -0.000011   0.000115  -0.000007  -0.000013   0.000000  -0.001574
    10  C   -0.000069   0.001700   0.000222   0.000074  -0.000018  -0.057416
    11  C    0.001749  -0.032877  -0.007238   0.000317   0.000137   0.165451
    12  H    0.319486  -0.020482   0.000839  -0.000019   0.001281   0.002462
    13  H    0.318473  -0.018399   0.002516  -0.000041  -0.000016  -0.001216
    14  H    0.001438  -0.003411   0.000093  -0.000002  -0.000001  -0.038474
    15  H    0.000325   0.000805  -0.000087   0.000002   0.000004  -0.048881
    16  H    0.000024   0.000453  -0.000058   0.000008   0.000000   0.000541
    17  H   -0.000008  -0.000037   0.000000   0.000000   0.000000   0.003606
    18  H    0.000000  -0.000008   0.000000   0.000000   0.000000  -0.000335
    19  H    0.000000  -0.000022   0.000000   0.000001   0.000000   0.000118
    20  H   -0.000004   0.000528  -0.000114   0.000548   0.000001  -0.000109
    21  H    0.000001  -0.000057   0.000005   0.000005   0.000000   0.003664
    22  H    0.000058  -0.002470   0.001507  -0.000394   0.000101  -0.038647
    23  H    0.000051   0.000348   0.000318   0.000091   0.000011  -0.049198
              7          8          9         10         11         12
     1  N   -0.007311   0.000289  -0.000011  -0.000069   0.001749   0.319486
     2  C   -0.033273   0.001321   0.000115   0.001700  -0.032877  -0.020482
     3  N    0.001938  -0.000020  -0.000007   0.000222  -0.007238   0.000839
     4  H   -0.000056  -0.000006  -0.000013   0.000074   0.000317  -0.000019
     5  H   -0.000042   0.000000   0.000000  -0.000018   0.000137   0.001281
     6  N    0.169182  -0.057121  -0.001574  -0.057416   0.165451   0.002462
     7  C    5.049557   0.329934  -0.052393  -0.006235  -0.028507   0.000170
     8  C    0.329934   5.138864   0.332025  -0.057742  -0.007818   0.000007
     9  C   -0.052393   0.332025   5.121429   0.329512  -0.054424   0.000000
    10  C   -0.006235  -0.057742   0.329512   5.153283   0.321951   0.000003
    11  C   -0.028507  -0.007818  -0.054424   0.321951   5.060463  -0.000033
    12  H    0.000170   0.000007   0.000000   0.000003  -0.000033   0.266683
    13  H    0.001163   0.000009   0.000004   0.000000  -0.000037  -0.009423
    14  H    0.409157  -0.031674   0.003358  -0.000288   0.002517   0.000152
    15  H    0.403384  -0.041646  -0.002243  -0.000264  -0.001073  -0.000021
    16  H   -0.043565   0.395780  -0.040027  -0.002259   0.000207  -0.000003
    17  H   -0.037728   0.401982  -0.032188   0.004052  -0.000235   0.000000
    18  H    0.004173  -0.034510   0.407291  -0.034500   0.004239   0.000000
    19  H   -0.002160  -0.043215   0.399543  -0.043368  -0.002934   0.000000
    20  H    0.000337  -0.002406  -0.039265   0.393642  -0.042650   0.000000
    21  H   -0.000263   0.003991  -0.032386   0.402627  -0.038083   0.000000
    22  H    0.002342  -0.000261   0.003549  -0.034275   0.410157   0.000000
    23  H   -0.002082  -0.000400  -0.002964  -0.044673   0.408923  -0.000001
             13         14         15         16         17         18
     1  N    0.318473   0.001438   0.000325   0.000024  -0.000008   0.000000
     2  C   -0.018399  -0.003411   0.000805   0.000453  -0.000037  -0.000008
     3  N    0.002516   0.000093  -0.000087  -0.000058   0.000000   0.000000
     4  H   -0.000041  -0.000002   0.000002   0.000008   0.000000   0.000000
     5  H   -0.000016  -0.000001   0.000004   0.000000   0.000000   0.000000
     6  N   -0.001216  -0.038474  -0.048881   0.000541   0.003606  -0.000335
     7  C    0.001163   0.409157   0.403384  -0.043565  -0.037728   0.004173
     8  C    0.000009  -0.031674  -0.041646   0.395780   0.401982  -0.034510
     9  C    0.000004   0.003358  -0.002243  -0.040027  -0.032188   0.407291
    10  C    0.000000  -0.000288  -0.000264  -0.002259   0.004052  -0.034500
    11  C   -0.000037   0.002517  -0.001073   0.000207  -0.000235   0.004239
    12  H   -0.009423   0.000152  -0.000021  -0.000003   0.000000   0.000000
    13  H    0.262598   0.000228  -0.000147  -0.000002   0.000003   0.000000
    14  H    0.000228   0.478829  -0.024089  -0.003087  -0.001813  -0.000062
    15  H   -0.000147  -0.024089   0.488819   0.003880  -0.000925  -0.000114
    16  H   -0.000002  -0.003087   0.003880   0.519734  -0.020896  -0.003196
    17  H    0.000003  -0.001813  -0.000925  -0.020896   0.476025  -0.002218
    18  H    0.000000  -0.000062  -0.000114  -0.003196  -0.002218   0.472704
    19  H    0.000000  -0.000061   0.002459   0.003989  -0.002699  -0.022212
    20  H    0.000000  -0.000031   0.000086   0.002585  -0.000067  -0.003059
    21  H    0.000000   0.000009   0.000000  -0.000053  -0.000055  -0.002167
    22  H    0.000000  -0.000072  -0.000038  -0.000033   0.000010  -0.000061
    23  H   -0.000011  -0.000050   0.003520   0.000112  -0.000013  -0.000114
             19         20         21         22         23
     1  N    0.000000  -0.000004   0.000001   0.000058   0.000051
     2  C   -0.000022   0.000528  -0.000057  -0.002470   0.000348
     3  N    0.000000  -0.000114   0.000005   0.001507   0.000318
     4  H    0.000001   0.000548   0.000005  -0.000394   0.000091
     5  H    0.000000   0.000001   0.000000   0.000101   0.000011
     6  N    0.000118  -0.000109   0.003664  -0.038647  -0.049198
     7  C   -0.002160   0.000337  -0.000263   0.002342  -0.002082
     8  C   -0.043215  -0.002406   0.003991  -0.000261  -0.000400
     9  C    0.399543  -0.039265  -0.032386   0.003549  -0.002964
    10  C   -0.043368   0.393642   0.402627  -0.034275  -0.044673
    11  C   -0.002934  -0.042650  -0.038083   0.410157   0.408923
    12  H    0.000000   0.000000   0.000000   0.000000  -0.000001
    13  H    0.000000   0.000000   0.000000   0.000000  -0.000011
    14  H   -0.000061  -0.000031   0.000009  -0.000072  -0.000050
    15  H    0.002459   0.000086   0.000000  -0.000038   0.003520
    16  H    0.003989   0.002585  -0.000053  -0.000033   0.000112
    17  H   -0.002699  -0.000067  -0.000055   0.000010  -0.000013
    18  H   -0.022212  -0.003059  -0.002167  -0.000061  -0.000114
    19  H    0.522428   0.004008  -0.002615  -0.000085   0.003015
    20  H    0.004008   0.529731  -0.021147  -0.002569   0.003891
    21  H   -0.002615  -0.021147   0.474873  -0.001738  -0.000665
    22  H   -0.000085  -0.002569  -0.001738   0.476992  -0.021723
    23  H    0.003015   0.003891  -0.000665  -0.021723   0.479014
 Mulliken atomic charges:
              1
     1  N   -0.924231
     2  C    1.031936
     3  N   -0.924418
     4  H    0.443767
     5  H    0.439156
     6  N   -0.679780
     7  C   -0.157725
     8  C   -0.327381
     9  C   -0.339333
    10  C   -0.325958
    11  C   -0.160203
    12  H    0.438900
    13  H    0.444297
    14  H    0.207335
    15  H    0.216244
    16  H    0.185864
    17  H    0.213203
    18  H    0.214151
    19  H    0.183811
    20  H    0.176065
    21  H    0.214054
    22  H    0.207649
    23  H    0.222598
 Sum of Mulliken atomic charges =   1.00000
 Mulliken charges with hydrogens summed into heavy atoms:
              1
     1  N   -0.041034
     2  C    1.031936
     3  N   -0.041495
     6  N   -0.679780
     7  C    0.265855
     8  C    0.071686
     9  C    0.058629
    10  C    0.064160
    11  C    0.270044
 Sum of Mulliken charges with hydrogens summed into heavy atoms =   1.00000
 DipInt: DoE/N= T F RetVal/Mat= T F Init=T NMatP=  1 IDeriv=0 Min/MaxMlt=  0  4
 Entering OneElI...
 OneElI was handed    33483682 working-precision words.
 Multipole integrals L=0 to 4 MinM= 0 MaxM= 0.
 Requested accuracy = 0.1000D-12
 PrsmSu:  NPrtUS=   1 ThrOK=F IAlg=1 NPAlg=1 LenDen=           0.
 Prism:   IPart=     0 DynPar=F LinDyn=F Incr=          19.
 PRISM was handed    33316669 working-precision words and  1989 shell-pairs
 IPart=  0 NShTot=        1989 NBatch=          49 AvBLen=        40.6
 PrSmSu:  NxtVal=             20.
 Electronic moments (au):
        -70.00000000         -2.11412112          0.04884309         -0.05314903
       -841.23013774       -350.16013425       -112.42449028          0.27765337
          2.29180121         -2.09185511        147.73653566          1.00580994
        -20.83862859        -42.95074460         20.02772890        295.56873151
        -87.91963282        -18.30529796         14.73877479       -130.83801115
     -18779.19391138      -3646.38551679       -697.73126086       -360.12998623
         12.45921129         87.37446758          2.08390430         15.96536997
        -71.38888783      -3849.39358845      -1125.41525126       -648.67449812
        182.71706901          0.79718909         98.86252773
 Electronic spatial extent (au):  <R**2>=           1303.8148
 DipInt: DoE/N= F T RetVal/Mat= T F Init=T NMatP=  1 IDeriv=0 Min/MaxMlt=  0  4
 Nuclear    moments (au):
         71.00000000          0.00000000          0.00000000          0.00000000
        821.47621954        319.64622812         72.89683847          0.00000000
          0.00000000          0.00000000       -260.36926167          0.94322212
         22.85675388         13.86819941        -22.61358602       -313.08321889
         84.31450006         19.08571511        -14.98286473        139.60463019
      16700.09219530       2598.44172035        330.76766401        373.57496455
         93.54817269        -88.82926494        -50.94140776         -4.39740590
         59.53145940       3340.26667428        597.13781285        400.89465557
       -205.45741279         17.44000495        -94.75373450
 Total      moments (au):
          1.00000000         -2.11412112          0.04884309         -0.05314903
        -19.75391820        -30.51390614        -39.52765181          0.27765337
          2.29180121         -2.09185511       -112.63272601          1.94903206
          2.01812529        -29.08254519         -2.58585713        -17.51448738
         -3.60513275          0.78041715         -0.24408994          8.76661904
      -2079.10171608      -1047.94379644       -366.96359684         13.44497831
        106.00738398         -1.45479736        -48.85750346         11.56796407
        -11.85742843       -509.12691418       -528.27743841       -247.77984255
        -22.74034378         18.23719404          4.10879323
 Traceless Quadrup. (au):
         10.17790718         -0.58208075         -9.59582643          0.27765337
          2.29180121         -2.09185511
 Charge=              1.0000 electrons
 Dipole moment (field-independent basis, Debye):
    X=             -5.3736    Y=              0.1241    Z=             -0.1351  Tot=              5.3767
 Quadrupole moment (field-independent basis, Debye-Ang):
   XX=            -26.5697   YY=            -41.0422   ZZ=            -53.1660
   XY=              0.3735   XZ=              3.0826   YZ=             -2.8136
 Traceless Quadrupole moment (field-independent basis, Debye-Ang):
   XX=             13.6896   YY=             -0.7829   ZZ=            -12.9067
   XY=              0.3735   XZ=              3.0826   YZ=             -2.8136
 Octapole moment (field-independent basis, Debye-Ang**2):
  XXX=            -80.1676  YYY=              1.3872  ZZZ=              1.4364  XYY=            -20.6998
  XXY=             -1.8405  XXZ=            -12.4661  XZZ=             -2.5660  YZZ=              0.5555
  YYZ=             -0.1737  XYZ=              6.2397
 Hexadecapole moment (field-independent basis, Debye-Ang**3):
 XXXX=           -783.0894 YYYY=           -394.7059 ZZZZ=           -138.2161 XXXY=              5.0640
 XXXZ=             39.9275 YYYX=             -0.5479 YYYZ=            -18.4021 ZZZX=              4.3570
 ZZZY=             -4.4661 XXYY=           -191.7616 XXZZ=           -198.9746 YYZZ=            -93.3258
 XXYZ=             -8.5651 YYXZ=              6.8690 ZZXY=              1.5476
 N-N= 4.959309631143D+02 E-N=-1.908677538271D+03  KE= 3.975412691641D+02
 Entering OneElI...
 OneElI was handed    33429806 working-precision words.
 Calculate electrostatic properties
    NBasis =   163  MinDer = 0  MaxDer = 0
    NGrid  =    23  NMatD  =   1
 Requested accuracy = 0.1000D-12
 PrsmSu:  NPrtUS=   2 ThrOK=T IAlg=1 NPAlg=1 LenDen=           0.
 Prism:   IPart=     0 DynPar=F LinDyn=F Incr=         219.
 PRISM was handed    16606525 working-precision words and  1913 shell-pairs
 PRISM was handed    16606525 working-precision words and  1913 shell-pairs
 IPart=  1 NShTot=       21781 NBatch=         947 AvBLen=        23.0
 IPart=  0 NShTot=       22218 NBatch=         966 AvBLen=        23.0
 PrSmSu:  NxtVal=            439.
 --------------------------------------------------------
       Center         ----      EFG at Nuclei      ----
                      3XX-RR        3YY-RR        3ZZ-RR
 --------------------------------------------------------
     1   Atom       -0.167095     -0.264984      0.432079
     2   Atom        0.226443      0.177575     -0.404018
     3   Atom       -0.425005     -0.347141      0.772147
     4   Atom       -0.020587     -0.136372      0.156959
     5   Atom       -0.381545      0.154783      0.226762
     6   Atom       -0.492597     -0.263906      0.756502
     7   Atom        0.056736     -0.256203      0.199467
     8   Atom       -0.044543      0.051006     -0.006463
     9   Atom        0.004470     -0.052128      0.047658
    10   Atom       -0.035922      0.045542     -0.009620
    11   Atom        0.033927     -0.181124      0.147198
    12   Atom       -0.234708      0.166441      0.068267
    13   Atom        0.146757     -0.169694      0.022937
    14   Atom       -0.020432     -0.092658      0.113090
    15   Atom        0.119810      0.119576     -0.239386
    16   Atom        0.103932      0.145138     -0.249070
    17   Atom        0.027192     -0.169797      0.142605
    18   Atom       -0.111536      0.138614     -0.027078
    19   Atom        0.083075      0.131672     -0.214748
    20   Atom        0.102483      0.128534     -0.231018
    21   Atom        0.015308     -0.113093      0.097785
    22   Atom       -0.006025     -0.148255      0.154280
    23   Atom        0.110688      0.121537     -0.232225
 --------------------------------------------------------
                        XY            XZ            YZ
 --------------------------------------------------------
     1   Atom       -0.416092     -0.506162      0.465609
     2   Atom        0.036835      0.173821     -0.156849
     3   Atom        0.140208      0.068165      0.568947
     4   Atom       -0.231869      0.111868      0.172478
     5   Atom        0.071604      0.012804      0.025611
     6   Atom        0.070558     -0.383599     -0.176549
     7   Atom        0.253341     -0.017728      0.015258
     8   Atom       -0.014212      0.072783     -0.003810
     9   Atom        0.004332     -0.025406     -0.010830
    10   Atom       -0.001467      0.062813      0.019431
    11   Atom       -0.243799     -0.109177     -0.147028
    12   Atom       -0.016817     -0.267820      0.024044
    13   Atom        0.077236     -0.095213      0.276979
    14   Atom       -0.182340     -0.083656     -0.107092
    15   Atom        0.026335     -0.095937      0.073180
    16   Atom        0.004754     -0.115940      0.026921
    17   Atom        0.187058     -0.019132      0.041123
    18   Atom       -0.024217      0.214322      0.018603
    19   Atom        0.021323     -0.149193      0.050029
    20   Atom        0.029275     -0.114264      0.085151
    21   Atom       -0.180265     -0.073554     -0.113526
    22   Atom        0.200113     -0.014268      0.000734
    23   Atom        0.010909     -0.113236      0.063346
 --------------------------------------------------------


 ---------------------------------------------------------------------------------
              Nuclear Quadrupole in Principal Axis System
 ---------------------------------------------------------------------------------

       Atom             a.u.   MegaHertz   Gauss  10(-4) cm-1        Axes

              Baa    -0.6353   -24.501    -8.743    -8.173  0.6501  0.7595 -0.0230
     1 N(14)  Bbb    -0.3794   -14.633    -5.221    -4.881  0.5895 -0.4850  0.6460
              Bcc     1.0147    39.134    13.964    13.054 -0.4794  0.4335  0.7630
 
              Baa    -0.4878   -65.453   -23.355   -21.833 -0.2413  0.2353  0.9415
     2 C(13)  Bbb     0.2164    29.035    10.360     9.685  0.1174  0.9701 -0.2124
              Bcc     0.2714    36.418    12.995    12.148  0.9633 -0.0593  0.2617
 
              Baa    -0.6375   -24.587    -8.773    -8.201 -0.4501  0.8354 -0.3154
     3 N(14)  Bbb    -0.3826   -14.756    -5.265    -4.922  0.8893  0.3872 -0.2433
              Bcc     1.0201    39.343    14.038    13.123  0.0811  0.3900  0.9172
 
              Baa    -0.3937  -210.064   -74.956   -70.070  0.5679  0.7455 -0.3489
     4 H(1)   Bbb     0.1568    83.686    29.861    27.915  0.8222 -0.5334  0.1985
              Bcc     0.2369   126.377    45.095    42.155  0.0381  0.3996  0.9159
 
              Baa    -0.3911  -208.663   -74.456   -69.602  0.9915 -0.1293 -0.0152
     5 H(1)   Bbb     0.1541    82.232    29.342    27.430  0.1160  0.9301 -0.3484
              Bcc     0.2370   126.431    45.114    42.173  0.0592  0.3437  0.9372
 
              Baa    -0.6023   -23.228    -8.288    -7.748  0.9626 -0.0632  0.2635
     6 N(14)  Bbb    -0.2935   -11.319    -4.039    -3.776  0.0176  0.9849  0.1720
              Bcc     0.8957    34.547    12.327    11.523 -0.2704 -0.1610  0.9492
 
              Baa    -0.3983   -53.449   -19.072   -17.829 -0.4872  0.8725 -0.0367
     7 C(13)  Bbb     0.1910    25.634     9.147     8.551  0.6469  0.3888  0.6560
              Bcc     0.2073    27.814     9.925     9.278 -0.5867 -0.2959  0.7538
 
              Baa    -0.1013   -13.588    -4.849    -4.533  0.7930  0.0588 -0.6064
     8 C(13)  Bbb     0.0389     5.222     1.863     1.742  0.4141  0.6781  0.6072
              Bcc     0.0623     8.366     2.985     2.791 -0.4469  0.7326 -0.5133
 
              Baa    -0.0533    -7.158    -2.554    -2.388 -0.0311  0.9946  0.0988
     9 C(13)  Bbb    -0.0073    -0.976    -0.348    -0.325  0.9085 -0.0131  0.4176
              Bcc     0.0606     8.133     2.902     2.713 -0.4167 -0.1028  0.9032
 
              Baa    -0.0883   -11.849    -4.228    -3.952  0.7653  0.1007 -0.6358
    10 C(13)  Bbb     0.0298     3.999     1.427     1.334 -0.5427  0.6322 -0.5531
              Bcc     0.0585     7.850     2.801     2.618  0.3462  0.7683  0.5384
 
              Baa    -0.4010   -53.814   -19.202   -17.950  0.5230  0.7914  0.3164
    11 C(13)  Bbb     0.1875    25.155     8.976     8.391  0.6642 -0.6111  0.4307
              Bcc     0.2136    28.659    10.226     9.560 -0.5342  0.0151  0.8452
 
              Baa    -0.3909  -208.579   -74.426   -69.575  0.8639  0.0043  0.5036
    12 H(1)   Bbb     0.1543    82.312    29.371    27.456  0.1902  0.9231 -0.3342
              Bcc     0.2367   126.268    45.055    42.118 -0.4664  0.3845  0.7967
 
              Baa    -0.3926  -209.462   -74.741   -69.869 -0.2146  0.7893 -0.5753
    13 H(1)   Bbb     0.1564    83.463    29.782    27.840  0.8707  0.4215  0.2534
              Bcc     0.2362   125.999    44.960    42.029 -0.4425  0.4465  0.7777
 
              Baa    -0.2884  -153.876   -54.907   -51.327  0.5992  0.7336  0.3205
    14 H(1)   Bbb     0.1290    68.833    24.561    22.960  0.7913 -0.6035 -0.0980
              Bcc     0.1594    85.043    30.345    28.367 -0.1216 -0.3124  0.9422
 
              Baa    -0.2785  -148.570   -53.013   -49.558  0.2418 -0.1909  0.9514
    15 H(1)   Bbb     0.1303    69.529    24.810    23.192 -0.4360  0.8545  0.2823
              Bcc     0.1481    79.041    28.204    26.365  0.8668  0.4831 -0.1234
 
              Baa    -0.2855  -152.306   -54.346   -50.804  0.2855 -0.0629  0.9563
    16 H(1)   Bbb     0.1375    73.384    26.185    24.478  0.9134  0.3200 -0.2516
              Bcc     0.1479    78.922    28.161    26.325 -0.2902  0.9453  0.1489
 
              Baa    -0.2874  -153.362   -54.723   -51.156 -0.5129  0.8521 -0.1043
    17 H(1)   Bbb     0.1377    73.456    26.211    24.502  0.7900  0.4210 -0.4457
              Bcc     0.1498    79.906    28.513    26.654  0.3359  0.3110  0.8891
 
              Baa    -0.2899  -154.689   -55.197   -51.599  0.7706  0.0710 -0.6334
    18 H(1)   Bbb     0.1407    75.053    26.781    25.035  0.0205  0.9905  0.1361
              Bcc     0.1493    79.636    28.416    26.564  0.6370 -0.1178  0.7618
 
              Baa    -0.2837  -151.394   -54.021   -50.500  0.3800 -0.1298  0.9158
    19 H(1)   Bbb     0.1387    74.029    26.415    24.693 -0.0281  0.9880  0.1517
              Bcc     0.1450    77.365    27.606    25.806  0.9245  0.0834 -0.3718
 
              Baa    -0.2860  -152.571   -54.441   -50.892  0.2905 -0.2122  0.9331
    20 H(1)   Bbb     0.1372    73.205    26.121    24.419  0.9114 -0.2358 -0.3373
              Bcc     0.1488    79.366    28.320    26.474  0.2916  0.9484  0.1249
 
              Baa    -0.2877  -153.480   -54.765   -51.195  0.5406  0.7735  0.3310
    21 H(1)   Bbb     0.1386    73.959    26.391    24.670  0.7665 -0.2906 -0.5727
              Bcc     0.1490    79.521    28.375    26.525  0.3468 -0.5633  0.7500
 
              Baa    -0.2897  -154.565   -55.153   -51.557 -0.5770  0.8165 -0.0199
    22 H(1)   Bbb     0.1301    69.396    24.762    23.148  0.7370  0.5310  0.4181
              Bcc     0.1596    85.169    30.391    28.409 -0.3520 -0.2266  0.9082
 
              Baa    -0.2765  -147.515   -52.637   -49.206  0.2813 -0.1583  0.9465
    23 H(1)   Bbb     0.1282    68.399    24.406    22.815  0.4455  0.8951  0.0174
              Bcc     0.1483    79.116    28.230    26.390  0.8500 -0.4168 -0.3223
 

 ---------------------------------------------------------------------------------

 No NMR shielding tensors so no spin-rotation constants.
 Leave Link  601 at Fri Aug 24 15:36:03 2018, MaxMem=   33554432 cpu:       0.4
 Merz-Kollman atomic radii used.
 Read replacement radii for each type of atom:
 Atom Element Radius
    1     7    1.50
    2     6    1.50
    3     7    1.50
    4     1    1.20
    5     1    1.20
    6     7    1.50
    7     6    1.50
    8     6    1.50
    9     6    1.50
   10     6    1.50
   11     6    1.50
   12     1    1.20
   13     1    1.20
   14     1    1.20
   15     1    1.20
   16     1    1.20
   17     1    1.20
   18     1    1.20
   19     1    1.20
   20     1    1.20
   21     1    1.20
   22     1    1.20
   23     1    1.20
 Generate VDW surfaces: Layer= 4 Dens= 1 Start= 1.400 Inc= 0.200

 **********************************************************************

            Electrostatic Properties Using The SCF Density

 **********************************************************************

       Atomic Center    1 is at  -2.446194 -1.036154  0.014586
       Atomic Center    2 is at  -1.635952  0.039449 -0.031059
       Atomic Center    3 is at  -2.178247  1.201625 -0.445046
       Atomic Center    4 is at  -1.610747  1.954132 -0.804910
       Atomic Center    5 is at  -3.178587  1.341558 -0.427353
       Atomic Center    6 is at  -0.352347 -0.044835  0.317209
       Atomic Center    7 is at   0.396164 -1.325618  0.351981
       Atomic Center    8 is at   1.654767 -1.229111 -0.523872
       Atomic Center    9 is at   2.524694 -0.020344 -0.154360
       Atomic Center   10 is at   1.698809  1.274068 -0.177440
       Atomic Center   11 is at   0.461911  1.131936  0.713513
       Atomic Center   12 is at  -3.318012 -1.049812 -0.495735
       Atomic Center   13 is at  -2.238045 -1.831546  0.599743
       Atomic Center   14 is at  -0.247386 -2.129096 -0.008325
       Atomic Center   15 is at   0.660277 -1.534718  1.396162
       Atomic Center   16 is at   1.347069 -1.164049 -1.575322
       Atomic Center   17 is at   2.216957 -2.162705 -0.412095
       Atomic Center   18 is at   3.370186  0.056954 -0.844981
       Atomic Center   19 is at   2.949523 -0.162982  0.848761
       Atomic Center   20 is at   1.389741  1.509357 -1.204662
       Atomic Center   21 is at   2.291335  2.121861  0.183120
       Atomic Center   22 is at  -0.164401  2.024801  0.711976
       Atomic Center   23 is at   0.767253  0.959513  1.753806
      ESP Fit Center   24 is at  -2.446194 -1.036154  2.114586
      ESP Fit Center   25 is at  -2.971194 -0.126827  1.833239
      ESP Fit Center   26 is at  -3.496194 -1.036154  1.833239
      ESP Fit Center   27 is at  -3.637159  0.338292  1.064586
      ESP Fit Center   28 is at  -4.191179 -0.523780  1.064586
      ESP Fit Center   29 is at  -4.191179 -1.548528  1.064586
      ESP Fit Center   30 is at  -2.705015 -2.836296 -1.035414
      ESP Fit Center   31 is at  -1.690698 -2.690459 -1.035414
      ESP Fit Center   32 is at  -1.921194 -1.945481 -1.804067
      ESP Fit Center   33 is at  -2.446194 -1.036154 -2.085414
      ESP Fit Center   34 is at  -1.635952  0.039449  2.068941
      ESP Fit Center   35 is at  -2.160952  0.948776  1.787594
      ESP Fit Center   36 is at  -0.585952  0.039449 -1.849712
      ESP Fit Center   37 is at  -1.110952 -0.869878 -1.849712
      ESP Fit Center   38 is at  -1.635952  0.039449 -2.131059
      ESP Fit Center   39 is at  -2.178247  1.201625  1.654954
      ESP Fit Center   40 is at  -2.703247  2.110951  1.373608
      ESP Fit Center   41 is at  -3.228247  1.201625  1.373608
      ESP Fit Center   42 is at  -2.437068  3.001767  0.604954
      ESP Fit Center   43 is at  -2.922917  3.165159 -0.445046
      ESP Fit Center   44 is at  -1.128247  1.201625 -2.263699
      ESP Fit Center   45 is at  -2.703247  2.110951 -2.263699
      ESP Fit Center   46 is at  -3.228247  1.201625 -2.263699
      ESP Fit Center   47 is at  -2.703247  0.292298 -2.263699
      ESP Fit Center   48 is at  -1.653247  0.292298 -2.263699
      ESP Fit Center   49 is at  -2.178247  1.201625 -2.545046
      ESP Fit Center   50 is at  -1.333296  3.527633 -0.285762
      ESP Fit Center   51 is at  -2.409634  3.337845 -0.285762
      ESP Fit Center   52 is at  -0.386780  2.981162 -1.324059
      ESP Fit Center   53 is at  -1.333296  3.527633 -1.324059
      ESP Fit Center   54 is at  -2.409634  3.337845 -1.324059
      ESP Fit Center   55 is at  -0.623268  1.954132 -2.164059
      ESP Fit Center   56 is at  -1.305599  2.893280 -2.164059
      ESP Fit Center   57 is at  -2.409634  2.534557 -2.164059
      ESP Fit Center   58 is at  -1.610747  1.954132 -2.484910
      ESP Fit Center   59 is at  -3.977474  1.921983  0.931795
      ESP Fit Center   60 is at  -3.977474  0.761132  0.931795
      ESP Fit Center   61 is at  -3.977474  2.725271  0.091795
      ESP Fit Center   62 is at  -4.680004  1.888029  0.091795
      ESP Fit Center   63 is at  -4.680004  0.795087  0.091795
      ESP Fit Center   64 is at  -3.977474  2.725271 -0.946502
      ESP Fit Center   65 is at  -4.680004  1.888029 -0.946502
      ESP Fit Center   66 is at  -4.680004  0.795087 -0.946502
      ESP Fit Center   67 is at  -3.977474  1.921983 -1.786502
      ESP Fit Center   68 is at  -3.977474  0.761132 -1.786502
      ESP Fit Center   69 is at  -1.402347 -0.044835  2.135862
      ESP Fit Center   70 is at  -0.877347 -0.954162  2.135862
      ESP Fit Center   71 is at  -0.352347 -0.044835 -1.782791
      ESP Fit Center   72 is at  -0.653836 -1.325618 -1.466672
      ESP Fit Center   73 is at   0.463802 -2.603557 -1.573872
      ESP Fit Center   74 is at   0.954138  3.237602 -0.177440
      ESP Fit Center   75 is at   3.228757  2.257306 -1.227440
      ESP Fit Center   76 is at   1.217407  2.786241  1.763513
      ESP Fit Center   77 is at  -4.819430 -0.503340  0.023413
      ESP Fit Center   78 is at  -4.819430 -1.596283  0.023413
      ESP Fit Center   79 is at  -4.116900 -2.433525  0.023413
      ESP Fit Center   80 is at  -4.819430 -0.503340 -1.014884
      ESP Fit Center   81 is at  -4.819430 -1.596283 -1.014884
      ESP Fit Center   82 is at  -4.116900 -2.433525 -1.014884
      ESP Fit Center   83 is at  -4.116900 -0.469386 -1.854884
      ESP Fit Center   84 is at  -4.116900 -1.630237 -1.854884
      ESP Fit Center   85 is at  -3.012864 -1.988960 -1.854884
      ESP Fit Center   86 is at  -3.318012 -1.049812 -2.175735
      ESP Fit Center   87 is at  -2.238045 -1.831546  2.279743
      ESP Fit Center   88 is at  -1.250566 -1.831546  1.958891
      ESP Fit Center   89 is at  -3.036932 -2.411971  1.958891
      ESP Fit Center   90 is at  -1.932897 -2.770694  1.958891
      ESP Fit Center   91 is at  -3.739462 -2.378017  1.118891
      ESP Fit Center   92 is at  -3.036932 -3.215259  1.118891
      ESP Fit Center   93 is at  -1.960594 -3.405047  1.118891
      ESP Fit Center   94 is at  -3.036932 -3.215259  0.080594
      ESP Fit Center   95 is at  -1.960594 -3.405047  0.080594
      ESP Fit Center   96 is at  -1.046274 -3.512809  0.510824
      ESP Fit Center   97 is at   0.030065 -3.702597  0.510824
      ESP Fit Center   98 is at  -1.046274 -3.512809 -0.527474
      ESP Fit Center   99 is at   0.030065 -3.702597 -0.527474
      ESP Fit Center  100 is at  -1.046274 -2.709521 -1.367474
      ESP Fit Center  101 is at   0.057762 -3.068244 -1.367474
      ESP Fit Center  102 is at  -0.247386 -2.129096 -1.688325
      ESP Fit Center  103 is at   0.660277 -1.534718  3.076162
      ESP Fit Center  104 is at   1.647756 -1.534718  2.755310
      ESP Fit Center  105 is at   0.965425 -0.595570  2.755310
      ESP Fit Center  106 is at  -0.138610 -0.954293  2.755310
      ESP Fit Center  107 is at  -0.138610 -2.115144  2.755310
      ESP Fit Center  108 is at   0.965425 -2.473867  2.755310
      ESP Fit Center  109 is at   2.258052 -1.534718  1.915310
      ESP Fit Center  110 is at  -0.841140 -2.081190  1.915310
      ESP Fit Center  111 is at  -0.138610 -2.918432  1.915310
      ESP Fit Center  112 is at   0.937728 -3.108220  1.915310
      ESP Fit Center  113 is at   1.884244 -2.561748  1.915310
      ESP Fit Center  114 is at   0.548181  0.219665 -2.094471
      ESP Fit Center  115 is at  -0.154349 -0.617578 -2.094471
      ESP Fit Center  116 is at  -0.154349 -1.710520 -2.094471
      ESP Fit Center  117 is at   0.548181 -2.547762 -2.094471
      ESP Fit Center  118 is at   1.624519 -2.737550 -2.094471
      ESP Fit Center  119 is at   2.334548 -1.164049 -2.934471
      ESP Fit Center  120 is at   1.652216 -0.224900 -2.934471
      ESP Fit Center  121 is at   0.548181 -0.583623 -2.934471
      ESP Fit Center  122 is at   0.548181 -1.744475 -2.934471
      ESP Fit Center  123 is at   1.652216 -2.103197 -2.934471
      ESP Fit Center  124 is at   1.347069 -1.164049 -3.255322
      ESP Fit Center  125 is at   3.204437 -2.162705  0.947053
      ESP Fit Center  126 is at   2.522105 -3.101854  0.947053
      ESP Fit Center  127 is at   3.814732 -2.162705  0.107053
      ESP Fit Center  128 is at   1.418070 -3.546419  0.107053
      ESP Fit Center  129 is at   2.494408 -3.736206  0.107053
      ESP Fit Center  130 is at   3.440924 -3.189735  0.107053
      ESP Fit Center  131 is at   3.814732 -2.162705 -0.931244
      ESP Fit Center  132 is at   1.418070 -3.546419 -0.931244
      ESP Fit Center  133 is at   2.494408 -3.736206 -0.931244
      ESP Fit Center  134 is at   3.440924 -3.189735 -0.931244
      ESP Fit Center  135 is at   3.204437 -2.162705 -1.771244
      ESP Fit Center  136 is at   2.522105 -3.101854 -1.771244
      ESP Fit Center  137 is at   4.967961  0.056954 -0.325833
      ESP Fit Center  138 is at   4.594153  1.083984 -0.325833
      ESP Fit Center  139 is at   4.594153 -0.970076 -0.325833
      ESP Fit Center  140 is at   4.967961  0.056954 -1.364130
      ESP Fit Center  141 is at   4.594153  1.083984 -1.364130
      ESP Fit Center  142 is at   3.647637  1.630455 -1.364130
      ESP Fit Center  143 is at   3.647637 -1.516547 -1.364130
      ESP Fit Center  144 is at   4.594153 -0.970076 -1.364130
      ESP Fit Center  145 is at   4.357665  0.056954 -2.204130
      ESP Fit Center  146 is at   3.675334  0.996103 -2.204130
      ESP Fit Center  147 is at   2.571299  0.637380 -2.204130
      ESP Fit Center  148 is at   3.675334 -0.882194 -2.204130
      ESP Fit Center  149 is at   3.370186  0.056954 -2.524981
      ESP Fit Center  150 is at   2.949523 -0.162982  2.528761
      ESP Fit Center  151 is at   3.937002 -0.162982  2.207909
      ESP Fit Center  152 is at   3.254671  0.776166  2.207909
      ESP Fit Center  153 is at   2.150636 -0.743408  2.207909
      ESP Fit Center  154 is at   3.254671 -1.102131  2.207909
      ESP Fit Center  155 is at   4.547298 -0.162982  1.367909
      ESP Fit Center  156 is at   4.173490  0.864048  1.367909
      ESP Fit Center  157 is at   3.226974 -1.736483  1.367909
      ESP Fit Center  158 is at   4.173490 -1.190012  1.367909
      ESP Fit Center  159 is at   2.613707  2.536387 -1.723811
      ESP Fit Center  160 is at   1.667191  3.082858 -1.723811
      ESP Fit Center  161 is at   0.590853  2.893071 -1.723811
      ESP Fit Center  162 is at  -0.111677  2.055828 -1.723811
      ESP Fit Center  163 is at  -0.111677  0.962886 -1.723811
      ESP Fit Center  164 is at   2.377220  1.509357 -2.563811
      ESP Fit Center  165 is at   1.694888  2.448505 -2.563811
      ESP Fit Center  166 is at   0.590853  2.089783 -2.563811
      ESP Fit Center  167 is at   0.590853  0.928931 -2.563811
      ESP Fit Center  168 is at   1.694888  0.570208 -2.563811
      ESP Fit Center  169 is at   1.389741  1.509357 -2.884662
      ESP Fit Center  170 is at   2.291335  2.121861  1.863120
      ESP Fit Center  171 is at   3.278814  2.121861  1.542269
      ESP Fit Center  172 is at   2.596483  3.061010  1.542269
      ESP Fit Center  173 is at   3.889110  2.121861  0.702269
      ESP Fit Center  174 is at   3.515302  3.148891  0.702269
      ESP Fit Center  175 is at   2.568786  3.695362  0.702269
      ESP Fit Center  176 is at   1.492448  3.505575  0.702269
      ESP Fit Center  177 is at   3.889110  2.121861 -0.336028
      ESP Fit Center  178 is at   3.515302  3.148891 -0.336028
      ESP Fit Center  179 is at   2.568786  3.695362 -0.336028
      ESP Fit Center  180 is at   1.492448  3.505575 -0.336028
      ESP Fit Center  181 is at   2.596483  3.061010 -1.176028
      ESP Fit Center  182 is at   0.140747  2.963950  2.071125
      ESP Fit Center  183 is at  -0.963289  2.605227  2.071125
      ESP Fit Center  184 is at   0.113049  3.598303  1.231125
      ESP Fit Center  185 is at  -0.963289  3.408515  1.231125
      ESP Fit Center  186 is at  -1.665819  2.571273  1.231125
      ESP Fit Center  187 is at   0.113049  3.598303  0.192827
      ESP Fit Center  188 is at  -0.963289  3.408515  0.192827
      ESP Fit Center  189 is at   0.140747  2.963950 -0.647173
      ESP Fit Center  190 is at   0.767253  0.959513  3.433806
      ESP Fit Center  191 is at   1.754732  0.959513  3.112955
      ESP Fit Center  192 is at   1.072401  1.898661  3.112955
      ESP Fit Center  193 is at  -0.031635  1.539938  3.112955
      ESP Fit Center  194 is at  -0.031635  0.379087  3.112955
      ESP Fit Center  195 is at   1.072401  0.020364  3.112955
      ESP Fit Center  196 is at   2.365028  0.959513  2.272955
      ESP Fit Center  197 is at   1.991219  1.986543  2.272955
      ESP Fit Center  198 is at   1.044703  2.533014  2.272955
      ESP Fit Center  199 is at   1.991219 -0.067517  2.272955
      ESP Fit Center  200 is at  -2.446194 -1.036154  2.414586
      ESP Fit Center  201 is at  -2.966854 -0.134344  2.176911
      ESP Fit Center  202 is at  -3.487515 -1.036154  2.176911
      ESP Fit Center  203 is at  -3.674972  0.381931  1.510962
      ESP Fit Center  204 is at  -4.246582 -0.507512  1.510962
      ESP Fit Center  205 is at  -4.246582 -1.564796  1.510962
      ESP Fit Center  206 is at  -3.905052 -2.865504  0.548636
      ESP Fit Center  207 is at  -2.966854 -3.317317 -0.519464
      ESP Fit Center  208 is at  -2.713233 -2.893451 -1.481789
      ESP Fit Center  209 is at  -1.666711 -2.742983 -1.481789
      ESP Fit Center  210 is at  -1.925533 -1.937964 -2.147739
      ESP Fit Center  211 is at  -2.446194 -1.036154 -2.385414
      ESP Fit Center  212 is at  -1.635952  0.039449  2.368941
      ESP Fit Center  213 is at  -2.156613  0.941259  2.131266
      ESP Fit Center  214 is at  -0.594632  0.039449 -2.193384
      ESP Fit Center  215 is at  -1.115292 -0.862362 -2.193384
      ESP Fit Center  216 is at  -2.698907  2.103435  1.717280
      ESP Fit Center  217 is at  -3.219568  1.201625  1.717280
      ESP Fit Center  218 is at  -2.445286  3.058921  1.051330
      ESP Fit Center  219 is at  -3.407024  2.619710  1.051330
      ESP Fit Center  220 is at  -2.698907  3.482787  0.089005
      ESP Fit Center  221 is at  -3.407024  2.619710 -1.941421
      ESP Fit Center  222 is at  -1.136926  1.201625 -2.607371
      ESP Fit Center  223 is at  -2.698907  2.103435 -2.607371
      ESP Fit Center  224 is at  -3.219568  1.201625 -2.607371
      ESP Fit Center  225 is at  -2.698907  0.299814 -2.607371
      ESP Fit Center  226 is at  -1.657586  0.299814 -2.607371
      ESP Fit Center  227 is at  -2.178247  1.201625 -2.845046
      ESP Fit Center  228 is at  -2.124571  3.535519  0.155090
      ESP Fit Center  229 is at  -0.650747  3.616900 -0.804910
      ESP Fit Center  230 is at  -1.610747  3.874132 -0.804910
      ESP Fit Center  231 is at  -2.570747  3.616900 -0.804910
      ESP Fit Center  232 is at  -0.265539  2.931483 -1.764910
      ESP Fit Center  233 is at  -1.096923  3.535519 -1.764910
      ESP Fit Center  234 is at  -2.124571  3.535519 -1.764910
      ESP Fit Center  235 is at  -0.650747  1.954132 -2.467679
      ESP Fit Center  236 is at  -1.130747  2.785516 -2.467679
      ESP Fit Center  237 is at  -2.090747  2.785516 -2.467679
      ESP Fit Center  238 is at  -1.610747  1.954132 -2.724910
      ESP Fit Center  239 is at  -3.658587  2.172942  1.235415
      ESP Fit Center  240 is at  -4.138587  1.341558  1.235415
      ESP Fit Center  241 is at  -3.692411  2.922945  0.532647
      ESP Fit Center  242 is at  -4.523795  2.318909  0.532647
      ESP Fit Center  243 is at  -4.841356  1.341558  0.532647
      ESP Fit Center  244 is at  -4.523795  0.364207  0.532647
      ESP Fit Center  245 is at  -4.138587  3.004327 -0.427353
      ESP Fit Center  246 is at  -4.841356  2.301558 -0.427353
      ESP Fit Center  247 is at  -5.098587  1.341558 -0.427353
      ESP Fit Center  248 is at  -4.841356  0.381558 -0.427353
      ESP Fit Center  249 is at  -3.692411  2.922945 -1.387353
      ESP Fit Center  250 is at  -4.523795  2.318909 -1.387353
      ESP Fit Center  251 is at  -4.841356  1.341558 -1.387353
      ESP Fit Center  252 is at  -4.523795  0.364207 -1.387353
      ESP Fit Center  253 is at  -3.658587  2.172942 -2.090122
      ESP Fit Center  254 is at  -4.138587  1.341558 -2.090122
      ESP Fit Center  255 is at  -1.393668 -0.044835  2.479534
      ESP Fit Center  256 is at  -0.873007 -0.946645  2.479534
      ESP Fit Center  257 is at  -0.352347 -0.044835 -2.082791
      ESP Fit Center  258 is at  -0.832614 -2.743703  1.848357
      ESP Fit Center  259 is at   0.916824 -3.606781  0.886031
      ESP Fit Center  260 is at  -0.645157 -1.325618 -1.810344
      ESP Fit Center  261 is at   1.387728 -3.086407 -2.020248
      ESP Fit Center  262 is at   4.864521 -0.020344  0.379690
      ESP Fit Center  263 is at   4.632805  0.994869  0.379690
      ESP Fit Center  264 is at   3.983552 -1.849694  0.379690
      ESP Fit Center  265 is at   4.632805 -1.035557  0.379690
      ESP Fit Center  266 is at   1.178148  3.555230 -0.711490
      ESP Fit Center  267 is at   3.277333  2.288524 -1.673816
      ESP Fit Center  268 is at   1.241394  2.838765  2.209888
      ESP Fit Center  269 is at  -1.338477  1.660578  2.209888
      ESP Fit Center  270 is at  -4.663220 -0.072461  0.464265
      ESP Fit Center  271 is at  -4.980781 -1.049812  0.464265
      ESP Fit Center  272 is at  -4.663220 -2.027163  0.464265
      ESP Fit Center  273 is at  -4.980781 -0.089812 -0.495735
      ESP Fit Center  274 is at  -5.238012 -1.049812 -0.495735
      ESP Fit Center  275 is at  -4.980781 -2.009812 -0.495735
      ESP Fit Center  276 is at  -4.278012 -2.712580 -0.495735
      ESP Fit Center  277 is at  -4.663220 -0.072461 -1.455735
      ESP Fit Center  278 is at  -4.980781 -1.049812 -1.455735
      ESP Fit Center  279 is at  -4.663220 -2.027163 -1.455735
      ESP Fit Center  280 is at  -3.831836 -2.631199 -1.455735
      ESP Fit Center  281 is at  -3.798012 -0.218427 -2.158504
      ESP Fit Center  282 is at  -4.278012 -1.049812 -2.158504
      ESP Fit Center  283 is at  -3.798012 -1.881196 -2.158504
      ESP Fit Center  284 is at  -3.318012 -1.049812 -2.415735
      ESP Fit Center  285 is at  -2.238045 -1.831546  2.519743
      ESP Fit Center  286 is at  -1.278045 -1.831546  2.262512
      ESP Fit Center  287 is at  -3.198045 -1.831546  2.262512
      ESP Fit Center  288 is at  -2.718045 -2.662930  2.262512
      ESP Fit Center  289 is at  -1.758045 -2.662930  2.262512
      ESP Fit Center  290 is at  -3.583253 -2.808896  1.559743
      ESP Fit Center  291 is at  -2.751869 -3.412933  1.559743
      ESP Fit Center  292 is at  -1.724221 -3.412933  1.559743
      ESP Fit Center  293 is at  -3.198045 -3.494314  0.599743
      ESP Fit Center  294 is at  -2.238045 -3.751546  0.599743
      ESP Fit Center  295 is at  -2.751869 -3.412933 -0.360257
      ESP Fit Center  296 is at  -1.724221 -3.412933 -0.360257
      ESP Fit Center  297 is at  -0.761210 -3.710483  0.951675
      ESP Fit Center  298 is at   0.266438 -3.710483  0.951675
      ESP Fit Center  299 is at  -1.207386 -3.791864 -0.008325
      ESP Fit Center  300 is at  -0.247386 -4.049096 -0.008325
      ESP Fit Center  301 is at   0.712614 -3.791864 -0.008325
      ESP Fit Center  302 is at  -1.592594 -3.106447 -0.968325
      ESP Fit Center  303 is at  -0.761210 -3.710483 -0.968325
      ESP Fit Center  304 is at   0.266438 -3.710483 -0.968325
      ESP Fit Center  305 is at  -0.727386 -2.960480 -1.671094
      ESP Fit Center  306 is at   0.232614 -2.960480 -1.671094
      ESP Fit Center  307 is at   0.660277 -1.534718  3.316162
      ESP Fit Center  308 is at   1.620277 -1.534718  3.058931
      ESP Fit Center  309 is at   1.140277 -0.703334  3.058931
      ESP Fit Center  310 is at   0.180277 -0.703334  3.058931
      ESP Fit Center  311 is at  -0.299723 -1.534718  3.058931
      ESP Fit Center  312 is at   0.180277 -2.366103  3.058931
      ESP Fit Center  313 is at   1.140277 -2.366103  3.058931
      ESP Fit Center  314 is at   2.323046 -1.534718  2.356162
      ESP Fit Center  315 is at  -1.002492 -1.534718  2.356162
      ESP Fit Center  316 is at  -0.684931 -2.512069  2.356162
      ESP Fit Center  317 is at   0.146453 -3.116106  2.356162
      ESP Fit Center  318 is at   1.174101 -3.116106  2.356162
      ESP Fit Center  319 is at   2.005485 -2.512069  2.356162
      ESP Fit Center  320 is at   1.620277 -3.197487  1.396162
      ESP Fit Center  321 is at   3.009837 -1.164049 -2.535322
      ESP Fit Center  322 is at   0.001860 -0.186698 -2.535322
      ESP Fit Center  323 is at  -0.315700 -1.164049 -2.535322
      ESP Fit Center  324 is at   0.001860 -2.141400 -2.535322
      ESP Fit Center  325 is at   0.833245 -2.745436 -2.535322
      ESP Fit Center  326 is at   1.860892 -2.745436 -2.535322
      ESP Fit Center  327 is at   2.692277 -2.141400 -2.535322
      ESP Fit Center  328 is at   2.307069 -1.164049 -3.238091
      ESP Fit Center  329 is at   1.827069 -0.332664 -3.238091
      ESP Fit Center  330 is at   0.867069 -0.332664 -3.238091
      ESP Fit Center  331 is at   0.387069 -1.164049 -3.238091
      ESP Fit Center  332 is at   0.867069 -1.995433 -3.238091
      ESP Fit Center  333 is at   1.827069 -1.995433 -3.238091
      ESP Fit Center  334 is at   1.347069 -1.164049 -3.495322
      ESP Fit Center  335 is at   3.176957 -2.162705  1.250673
      ESP Fit Center  336 is at   2.696957 -2.994089  1.250673
      ESP Fit Center  337 is at   3.879726 -2.162705  0.547905
      ESP Fit Center  338 is at   1.703134 -3.744092  0.547905
      ESP Fit Center  339 is at   2.730781 -3.744092  0.547905
      ESP Fit Center  340 is at   3.562166 -3.140056  0.547905
      ESP Fit Center  341 is at   4.136957 -2.162705 -0.412095
      ESP Fit Center  342 is at   1.256957 -3.825474 -0.412095
      ESP Fit Center  343 is at   2.216957 -4.082705 -0.412095
      ESP Fit Center  344 is at   3.176957 -3.825474 -0.412095
      ESP Fit Center  345 is at   3.879726 -3.122705 -0.412095
      ESP Fit Center  346 is at   3.879726 -2.162705 -1.372095
      ESP Fit Center  347 is at   1.703134 -3.744092 -1.372095
      ESP Fit Center  348 is at   2.730781 -3.744092 -1.372095
      ESP Fit Center  349 is at   3.562166 -3.140056 -1.372095
      ESP Fit Center  350 is at   2.696957 -2.994089 -2.074864
      ESP Fit Center  351 is at   5.032955  0.056954  0.115019
      ESP Fit Center  352 is at   4.715394  1.034305  0.115019
      ESP Fit Center  353 is at   5.290186  0.056954 -0.844981
      ESP Fit Center  354 is at   5.032955  1.016954 -0.844981
      ESP Fit Center  355 is at   4.330186  1.719723 -0.844981
      ESP Fit Center  356 is at   4.330186 -1.605815 -0.844981
      ESP Fit Center  357 is at   5.032955 -0.903046 -0.844981
      ESP Fit Center  358 is at   5.032955  0.056954 -1.804981
      ESP Fit Center  359 is at   4.715394  1.034305 -1.804981
      ESP Fit Center  360 is at   3.884010  1.638341 -1.804981
      ESP Fit Center  361 is at   3.884010 -1.524433 -1.804981
      ESP Fit Center  362 is at   4.715394 -0.920397 -1.804981
      ESP Fit Center  363 is at   4.330186  0.056954 -2.507750
      ESP Fit Center  364 is at   3.850186  0.888338 -2.507750
      ESP Fit Center  365 is at   2.890186  0.888338 -2.507750
      ESP Fit Center  366 is at   3.850186 -0.774430 -2.507750
      ESP Fit Center  367 is at   3.370186  0.056954 -2.764981
      ESP Fit Center  368 is at   2.949523 -0.162982  2.768761
      ESP Fit Center  369 is at   3.909523 -0.162982  2.511530
      ESP Fit Center  370 is at   3.429523  0.668402  2.511530
      ESP Fit Center  371 is at   2.469523 -0.994367  2.511530
      ESP Fit Center  372 is at   3.429523 -0.994367  2.511530
      ESP Fit Center  373 is at   4.612292 -0.162982  1.808761
      ESP Fit Center  374 is at   4.294731  0.814369  1.808761
      ESP Fit Center  375 is at   3.463347  1.418405  1.808761
      ESP Fit Center  376 is at   3.463347 -1.744369  1.808761
      ESP Fit Center  377 is at   4.294731 -1.140333  1.808761
      ESP Fit Center  378 is at   4.869523 -0.162982  0.848761
      ESP Fit Center  379 is at   4.612292  0.797018  0.848761
      ESP Fit Center  380 is at   3.909523 -1.825751  0.848761
      ESP Fit Center  381 is at   4.612292 -1.122982  0.848761
      ESP Fit Center  382 is at   1.389741  3.429357 -1.204662
      ESP Fit Center  383 is at   0.429741  3.172126 -1.204662
      ESP Fit Center  384 is at   3.052509  1.509357 -2.164662
      ESP Fit Center  385 is at   2.734949  2.486708 -2.164662
      ESP Fit Center  386 is at   1.903564  3.090744 -2.164662
      ESP Fit Center  387 is at   0.875917  3.090744 -2.164662
      ESP Fit Center  388 is at   0.044532  2.486708 -2.164662
      ESP Fit Center  389 is at  -0.273028  1.509357 -2.164662
      ESP Fit Center  390 is at   0.044532  0.532006 -2.164662
      ESP Fit Center  391 is at   2.349741  1.509357 -2.867431
      ESP Fit Center  392 is at   1.869741  2.340741 -2.867431
      ESP Fit Center  393 is at   0.909741  2.340741 -2.867431
      ESP Fit Center  394 is at   0.429741  1.509357 -2.867431
      ESP Fit Center  395 is at   0.909741  0.677972 -2.867431
      ESP Fit Center  396 is at   1.869741  0.677972 -2.867431
      ESP Fit Center  397 is at   1.389741  1.509357 -3.124662
      ESP Fit Center  398 is at   2.291335  2.121861  2.103120
      ESP Fit Center  399 is at   3.251335  2.121861  1.845889
      ESP Fit Center  400 is at   2.771335  2.953245  1.845889
      ESP Fit Center  401 is at   1.811335  2.953245  1.845889
      ESP Fit Center  402 is at   3.954104  2.121861  1.143120
      ESP Fit Center  403 is at   3.636543  3.099212  1.143120
      ESP Fit Center  404 is at   2.805159  3.703248  1.143120
      ESP Fit Center  405 is at   1.777511  3.703248  1.143120
      ESP Fit Center  406 is at   4.211335  2.121861  0.183120
      ESP Fit Center  407 is at   3.954104  3.081861  0.183120
      ESP Fit Center  408 is at   3.251335  3.784630  0.183120
      ESP Fit Center  409 is at   2.291335  4.041861  0.183120
      ESP Fit Center  410 is at   1.331335  3.784630  0.183120
      ESP Fit Center  411 is at   3.954104  2.121861 -0.776880
      ESP Fit Center  412 is at   3.636543  3.099212 -0.776880
      ESP Fit Center  413 is at   2.805159  3.703248 -0.776880
      ESP Fit Center  414 is at   1.777511  3.703248 -0.776880
      ESP Fit Center  415 is at  -0.644401  2.856186  2.374745
      ESP Fit Center  416 is at  -1.124401  2.024801  2.374745
      ESP Fit Center  417 is at   0.349423  3.606189  1.671976
      ESP Fit Center  418 is at  -0.678225  3.606189  1.671976
      ESP Fit Center  419 is at  -1.509609  3.002152  1.671976
      ESP Fit Center  420 is at   0.795599  3.687570  0.711976
      ESP Fit Center  421 is at  -0.164401  3.944801  0.711976
      ESP Fit Center  422 is at  -1.124401  3.687570  0.711976
      ESP Fit Center  423 is at   0.349423  3.606189 -0.248024
      ESP Fit Center  424 is at  -0.678225  3.606189 -0.248024
      ESP Fit Center  425 is at   0.767253  0.959513  3.673806
      ESP Fit Center  426 is at   1.727253  0.959513  3.416575
      ESP Fit Center  427 is at   1.247253  1.790897  3.416575
      ESP Fit Center  428 is at   0.287253  1.790897  3.416575
      ESP Fit Center  429 is at  -0.192747  0.959513  3.416575
      ESP Fit Center  430 is at   0.287253  0.128128  3.416575
      ESP Fit Center  431 is at   1.247253  0.128128  3.416575
      ESP Fit Center  432 is at   2.430021  0.959513  2.713806
      ESP Fit Center  433 is at   2.112461  1.936864  2.713806
      ESP Fit Center  434 is at   1.281076  2.540900  2.713806
      ESP Fit Center  435 is at   0.253429  2.540900  2.713806
      ESP Fit Center  436 is at  -0.895516  0.959513  2.713806
      ESP Fit Center  437 is at  -0.577956 -0.017838  2.713806
      ESP Fit Center  438 is at   2.112461 -0.017838  2.713806
      ESP Fit Center  439 is at  -2.446194 -1.036154  2.714586
      ESP Fit Center  440 is at  -2.962817 -0.141337  2.509061
      ESP Fit Center  441 is at  -3.479439 -1.036154  2.509061
      ESP Fit Center  442 is at  -3.696446  0.406714  1.923774
      ESP Fit Center  443 is at  -4.278047 -0.498274  1.923774
      ESP Fit Center  444 is at  -4.278047 -1.574035  1.923774
      ESP Fit Center  445 is at  -4.693638  0.046158  1.047831
      ESP Fit Center  446 is at  -4.940669 -1.036154  1.047831
      ESP Fit Center  447 is at  -4.693638 -2.118466  1.047831
      ESP Fit Center  448 is at  -4.355382 -2.945342  0.014586
      ESP Fit Center  449 is at  -3.479439 -3.530629  0.014586
      ESP Fit Center  450 is at  -3.001267 -3.468087 -1.018659
      ESP Fit Center  451 is at  -1.891121 -3.468087 -1.018659
      ESP Fit Center  452 is at  -2.717900 -2.925910 -1.894602
      ESP Fit Center  453 is at  -1.653088 -2.772813 -1.894602
      ESP Fit Center  454 is at  -2.962817 -1.930971 -2.479889
      ESP Fit Center  455 is at  -1.929571 -1.930971 -2.479889
      ESP Fit Center  456 is at  -2.446194 -1.036154 -2.685414
      ESP Fit Center  457 is at  -2.152575  0.934266  2.463416
      ESP Fit Center  458 is at  -0.602707  0.039449 -2.525534
      ESP Fit Center  459 is at  -1.119330 -0.855368 -2.525534
      ESP Fit Center  460 is at  -2.694869  2.096441  2.049429
      ESP Fit Center  461 is at  -3.211492  1.201625  2.049429
      ESP Fit Center  462 is at  -2.449953  3.091380  1.464143
      ESP Fit Center  463 is at  -3.428499  2.644493  1.464143
      ESP Fit Center  464 is at  -4.010099  0.663744  1.464143
      ESP Fit Center  465 is at  -1.623174  3.633558  0.588200
      ESP Fit Center  466 is at  -2.733320  3.633558  0.588200
      ESP Fit Center  467 is at  -3.211492  3.696100 -0.445046
      ESP Fit Center  468 is at  -3.733526  3.151884 -1.478291
      ESP Fit Center  469 is at  -3.428499  2.644493 -2.354234
      ESP Fit Center  470 is at  -4.010099  0.663744 -2.354234
      ESP Fit Center  471 is at  -1.145001  1.201625 -2.939520
      ESP Fit Center  472 is at  -2.694869  2.096441 -2.939520
      ESP Fit Center  473 is at  -3.211492  1.201625 -2.939520
      ESP Fit Center  474 is at  -2.694869  0.306808 -2.939520
      ESP Fit Center  475 is at  -1.661624  0.306808 -2.939520
      ESP Fit Center  476 is at  -2.178247  1.201625 -3.145046
      ESP Fit Center  477 is at  -1.876963  3.805706  0.275090
      ESP Fit Center  478 is at  -0.383727  3.731777 -0.804910
      ESP Fit Center  479 is at  -1.350388  4.098383 -0.804910
      ESP Fit Center  480 is at  -2.376693  3.973767 -0.804910
      ESP Fit Center  481 is at  -0.833665  3.655703 -1.884910
      ESP Fit Center  482 is at  -1.876963  3.805706 -1.884910
      ESP Fit Center  483 is at  -0.530747  1.954132 -2.675525
      ESP Fit Center  484 is at  -1.070747  2.889439 -2.675525
      ESP Fit Center  485 is at  -2.150747  2.889439 -2.675525
      ESP Fit Center  486 is at  -4.258587  1.341558  1.443262
      ESP Fit Center  487 is at  -4.403579  2.755274  0.652647
      ESP Fit Center  488 is at  -4.973429  1.868571  0.652647
      ESP Fit Center  489 is at  -4.973429  0.814545  0.652647
      ESP Fit Center  490 is at  -3.944534  3.361193 -0.427353
      ESP Fit Center  491 is at  -4.795370  2.773903 -0.427353
      ESP Fit Center  492 is at  -5.275821  1.858480 -0.427353
      ESP Fit Center  493 is at  -5.275821  0.824636 -0.427353
      ESP Fit Center  494 is at  -4.403579  2.755274 -1.507353
      ESP Fit Center  495 is at  -4.973429  1.868571 -1.507353
      ESP Fit Center  496 is at  -4.973429  0.814545 -1.507353
      ESP Fit Center  497 is at  -4.258587  1.341558 -2.297968
      ESP Fit Center  498 is at  -1.385592 -0.044835  2.811683
      ESP Fit Center  499 is at  -0.868970 -0.939652  2.811683
      ESP Fit Center  500 is at   0.951236 -3.757551  1.385226
      ESP Fit Center  501 is at   1.099694 -3.661044 -1.557117
      ESP Fit Center  502 is at   2.447873 -2.965769 -2.433060
      ESP Fit Center  503 is at   3.260879 -2.261296 -2.433060
      ESP Fit Center  504 is at   4.772138  1.061968  0.878885
      ESP Fit Center  505 is at   4.433882  1.888845 -0.154360
      ESP Fit Center  506 is at   4.433882 -1.929532 -0.154360
      ESP Fit Center  507 is at   3.946253  2.356380 -1.210686
      ESP Fit Center  508 is at   1.143736  3.706001 -1.210686
      ESP Fit Center  509 is at   3.304920  2.306253 -2.086629
      ESP Fit Center  510 is at   0.190205  3.021691  2.622701
      ESP Fit Center  511 is at  -1.369942  1.669816  2.622701
      ESP Fit Center  512 is at   1.016984  3.563869  1.746758
      ESP Fit Center  513 is at  -5.112854 -0.522798  0.584265
      ESP Fit Center  514 is at  -5.112854 -1.576825  0.584265
      ESP Fit Center  515 is at  -5.415247 -0.532890 -0.495735
      ESP Fit Center  516 is at  -5.415247 -1.566733 -0.495735
      ESP Fit Center  517 is at  -4.934795 -2.482157 -0.495735
      ESP Fit Center  518 is at  -5.112854 -0.522798 -1.575735
      ESP Fit Center  519 is at  -5.112854 -1.576825 -1.575735
      ESP Fit Center  520 is at  -4.543004 -2.463528 -1.575735
      ESP Fit Center  521 is at  -3.584228 -2.901386 -1.575735
      ESP Fit Center  522 is at  -3.858012 -0.114504 -2.366350
      ESP Fit Center  523 is at  -4.398012 -1.049812 -2.366350
      ESP Fit Center  524 is at  -3.858012 -1.985119 -2.366350
      ESP Fit Center  525 is at  -3.318012 -1.049812 -2.655735
      ESP Fit Center  526 is at  -2.238045 -1.831546  2.759743
      ESP Fit Center  527 is at  -3.318045 -1.831546  2.470358
      ESP Fit Center  528 is at  -2.778045 -2.766853  2.470358
      ESP Fit Center  529 is at  -1.698045 -2.766853  2.470358
      ESP Fit Center  530 is at  -3.463037 -3.245262  1.679743
      ESP Fit Center  531 is at  -2.504261 -3.683120  1.679743
      ESP Fit Center  532 is at  -1.460963 -3.533117  1.679743
      ESP Fit Center  533 is at  -3.003991 -3.851181  0.599743
      ESP Fit Center  534 is at  -1.977686 -3.975797  0.599743
      ESP Fit Center  535 is at  -0.513602 -3.980670  1.071675
      ESP Fit Center  536 is at  -1.013333 -4.148731 -0.008325
      ESP Fit Center  537 is at   0.012973 -4.273347 -0.008325
      ESP Fit Center  538 is at  -1.472378 -3.542812 -1.088325
      ESP Fit Center  539 is at  -0.513602 -3.980670 -1.088325
      ESP Fit Center  540 is at   0.529695 -3.830667 -1.088325
      ESP Fit Center  541 is at  -0.787386 -3.064403 -1.878940
      ESP Fit Center  542 is at   0.660277 -1.534718  3.556162
      ESP Fit Center  543 is at   1.740277 -1.534718  3.266777
      ESP Fit Center  544 is at   1.200277 -0.599411  3.266777
      ESP Fit Center  545 is at   0.120277 -0.599411  3.266777
      ESP Fit Center  546 is at  -0.419723 -1.534718  3.266777
      ESP Fit Center  547 is at   0.120277 -2.470026  3.266777
      ESP Fit Center  548 is at   1.200277 -2.470026  3.266777
      ESP Fit Center  549 is at   2.530892 -1.534718  2.476162
      ESP Fit Center  550 is at  -1.134565 -2.061732  2.476162
      ESP Fit Center  551 is at  -0.564715 -2.948435  2.476162
      ESP Fit Center  552 is at   0.394061 -3.386293  2.476162
      ESP Fit Center  553 is at   1.437359 -3.236290  2.476162
      ESP Fit Center  554 is at   2.233938 -2.546049  2.476162
      ESP Fit Center  555 is at   0.122076  0.249668 -2.655322
      ESP Fit Center  556 is at  -0.447773 -0.637036 -2.655322
      ESP Fit Center  557 is at  -0.447773 -1.691062 -2.655322
      ESP Fit Center  558 is at   0.122076 -2.577765 -2.655322
      ESP Fit Center  559 is at   1.080852 -3.015624 -2.655322
      ESP Fit Center  560 is at   2.124150 -2.865620 -2.655322
      ESP Fit Center  561 is at   2.427069 -1.164049 -3.445937
      ESP Fit Center  562 is at   1.887069 -0.228741 -3.445937
      ESP Fit Center  563 is at   0.807069 -0.228741 -3.445937
      ESP Fit Center  564 is at   0.267069 -1.164049 -3.445937
      ESP Fit Center  565 is at   0.807069 -2.099356 -3.445937
      ESP Fit Center  566 is at   1.887069 -2.099356 -3.445937
      ESP Fit Center  567 is at   1.347069 -1.164049 -3.735322
      ESP Fit Center  568 is at   2.756957 -3.098013  1.458520
      ESP Fit Center  569 is at   4.087572 -2.162705  0.667905
      ESP Fit Center  570 is at   1.950741 -4.014280  0.667905
      ESP Fit Center  571 is at   2.994039 -3.864276  0.667905
      ESP Fit Center  572 is at   3.790619 -3.174036  0.667905
      ESP Fit Center  573 is at   4.376957 -2.162705 -0.412095
      ESP Fit Center  574 is at   1.451011 -4.182340 -0.412095
      ESP Fit Center  575 is at   2.477317 -4.306956 -0.412095
      ESP Fit Center  576 is at   3.443977 -3.940350 -0.412095
      ESP Fit Center  577 is at   4.129542 -3.166507 -0.412095
      ESP Fit Center  578 is at   4.087572 -2.162705 -1.492095
      ESP Fit Center  579 is at   1.950741 -4.014280 -1.492095
[...]
  240 Fit       0.148078
  241 Fit       0.142189
  242 Fit       0.143737
  243 Fit       0.150675
  244 Fit       0.165069
  245 Fit       0.144764
  246 Fit       0.145481
  247 Fit       0.152238
  248 Fit       0.169981
  249 Fit       0.149275
  250 Fit       0.145765
  251 Fit       0.151509
  252 Fit       0.170034
  253 Fit       0.146682
  254 Fit       0.148291
  255 Fit       0.143356
  256 Fit       0.146971
  257 Fit       0.148597
  258 Fit       0.152780
  259 Fit       0.126403
  260 Fit       0.148874
  261 Fit       0.109627
  262 Fit       0.094206
  263 Fit       0.097042
  264 Fit       0.104829
  265 Fit       0.096216
  266 Fit       0.121858
  267 Fit       0.103756
  268 Fit       0.122962
  269 Fit       0.139045
  270 Fit       0.160556
  271 Fit       0.147314
  272 Fit       0.147368
  273 Fit       0.163715
  274 Fit       0.149422
  275 Fit       0.145354
  276 Fit       0.147436
  277 Fit       0.164354
  278 Fit       0.149990
  279 Fit       0.144418
  280 Fit       0.143061
  281 Fit       0.158599
  282 Fit       0.149097
  283 Fit       0.142995
  284 Fit       0.147549
  285 Fit       0.147824
  286 Fit       0.158466
  287 Fit       0.141802
  288 Fit       0.144807
  289 Fit       0.150994
  290 Fit       0.144393
  291 Fit       0.145562
  292 Fit       0.150929
  293 Fit       0.146684
  294 Fit       0.147894
  295 Fit       0.147471
  296 Fit       0.151121
  297 Fit       0.139859
  298 Fit       0.129508
  299 Fit       0.141516
  300 Fit       0.127490
  301 Fit       0.125990
  302 Fit       0.143231
  303 Fit       0.129873
  304 Fit       0.124079
  305 Fit       0.130875
  306 Fit       0.126816
  307 Fit       0.122870
  308 Fit       0.120266
  309 Fit       0.129613
  310 Fit       0.133666
  311 Fit       0.131383
  312 Fit       0.123382
  313 Fit       0.117686
  314 Fit       0.122439
  315 Fit       0.153008
  316 Fit       0.141506
  317 Fit       0.125608
  318 Fit       0.118154
  319 Fit       0.117377
  320 Fit       0.123375
  321 Fit       0.105759
  322 Fit       0.136005
  323 Fit       0.132866
  324 Fit       0.122784
  325 Fit       0.111341
  326 Fit       0.103487
  327 Fit       0.101690
  328 Fit       0.103539
  329 Fit       0.110453
  330 Fit       0.117707
  331 Fit       0.117209
  332 Fit       0.109063
  333 Fit       0.102508
  334 Fit       0.107776
  335 Fit       0.113187
  336 Fit       0.112280
  337 Fit       0.104535
  338 Fit       0.117003
  339 Fit       0.105637
  340 Fit       0.101961
  341 Fit       0.101029
  342 Fit       0.118193
  343 Fit       0.105402
  344 Fit       0.099629
  345 Fit       0.098088
  346 Fit       0.100667
  347 Fit       0.107328
  348 Fit       0.099558
  349 Fit       0.097239
  350 Fit       0.099986
  351 Fit       0.092560
  352 Fit       0.096401
  353 Fit       0.090615
  354 Fit       0.092781
  355 Fit       0.099836
  356 Fit       0.099926
  357 Fit       0.092431
  358 Fit       0.091852
  359 Fit       0.094087
  360 Fit       0.101168
  361 Fit       0.101632
  362 Fit       0.093928
  363 Fit       0.095445
  364 Fit       0.099158
  365 Fit       0.109369
  366 Fit       0.099111
  367 Fit       0.102551
  368 Fit       0.112117
  369 Fit       0.100866
  370 Fit       0.107116
  371 Fit       0.120869
  372 Fit       0.105978
  373 Fit       0.094800
  374 Fit       0.098525
  375 Fit       0.110284
  376 Fit       0.107408
  377 Fit       0.097641
  378 Fit       0.093224
  379 Fit       0.096618
  380 Fit       0.104679
  381 Fit       0.095641
  382 Fit       0.117261
  383 Fit       0.139732
  384 Fit       0.108554
  385 Fit       0.103849
  386 Fit       0.107464
  387 Fit       0.120792
  388 Fit       0.144323
  389 Fit       0.156238
  390 Fit       0.145549
  391 Fit       0.107758
  392 Fit       0.107801
  393 Fit       0.118376
  394 Fit       0.128153
  395 Fit       0.124706
  396 Fit       0.115703
  397 Fit       0.114145
  398 Fit       0.122497
  399 Fit       0.109327
  400 Fit       0.108744
  401 Fit       0.120925
  402 Fit       0.103014
  403 Fit       0.100886
  404 Fit       0.104280
  405 Fit       0.114642
  406 Fit       0.101138
  407 Fit       0.098382
  408 Fit       0.099967
  409 Fit       0.106060
  410 Fit       0.119856
  411 Fit       0.103147
  412 Fit       0.099078
  413 Fit       0.101795
  414 Fit       0.111759
  415 Fit       0.124769
  416 Fit       0.132653
  417 Fit       0.123001
  418 Fit       0.125809
  419 Fit       0.132609
  420 Fit       0.127412
  421 Fit       0.129672
  422 Fit       0.139558
  423 Fit       0.137012
  424 Fit       0.154219
  425 Fit       0.117230
  426 Fit       0.116173
  427 Fit       0.114499
  428 Fit       0.117429
  429 Fit       0.122775
  430 Fit       0.125782
  431 Fit       0.122058
  432 Fit       0.119758
  433 Fit       0.117210
  434 Fit       0.118412
  435 Fit       0.122547
  436 Fit       0.135187
  437 Fit       0.139275
  438 Fit       0.126546
  439 Fit       0.136230
  440 Fit       0.131912
  441 Fit       0.127655
  442 Fit       0.135664
  443 Fit       0.127591
  444 Fit       0.127634
  445 Fit       0.142514
  446 Fit       0.134421
  447 Fit       0.133274
  448 Fit       0.137857
  449 Fit       0.138003
  450 Fit       0.131453
  451 Fit       0.133902
  452 Fit       0.126820
  453 Fit       0.127430
  454 Fit       0.131720
  455 Fit       0.127331
  456 Fit       0.134753
  457 Fit       0.135386
  458 Fit       0.140220
  459 Fit       0.137199
  460 Fit       0.126923
  461 Fit       0.133927
  462 Fit       0.126383
  463 Fit       0.127832
  464 Fit       0.144740
  465 Fit       0.140049
  466 Fit       0.130253
  467 Fit       0.135648
  468 Fit       0.138674
  469 Fit       0.133764
  470 Fit       0.143427
  471 Fit       0.134271
  472 Fit       0.128788
  473 Fit       0.128342
  474 Fit       0.130804
  475 Fit       0.131693
  476 Fit       0.126555
  477 Fit       0.138402
  478 Fit       0.143698
  479 Fit       0.137575
  480 Fit       0.137176
  481 Fit       0.137448
  482 Fit       0.135060
  483 Fit       0.140936
  484 Fit       0.135744
  485 Fit       0.134227
  486 Fit       0.138432
  487 Fit       0.132222
  488 Fit       0.135755
  489 Fit       0.145152
  490 Fit       0.135463
  491 Fit       0.133291
  492 Fit       0.136722
  493 Fit       0.146863
  494 Fit       0.134849
  495 Fit       0.136600
  496 Fit       0.146637
  497 Fit       0.138513
  498 Fit       0.135317
  499 Fit       0.138352
  500 Fit       0.118352
  501 Fit       0.110331
  502 Fit       0.097912
  503 Fit       0.096373
  504 Fit       0.093401
  505 Fit       0.098003
  506 Fit       0.096829
  507 Fit       0.098265
  508 Fit       0.116174
  509 Fit       0.099423
  510 Fit       0.117190
  511 Fit       0.129355
  512 Fit       0.117757
  513 Fit       0.141527
  514 Fit       0.135838
  515 Fit       0.142989
  516 Fit       0.135451
  517 Fit       0.134446
  518 Fit       0.143487
  519 Fit       0.135251
  520 Fit       0.132713
  521 Fit       0.133514
  522 Fit       0.148136
  523 Fit       0.138060
  524 Fit       0.132853
  525 Fit       0.138048
  526 Fit       0.138167
  527 Fit       0.132895
  528 Fit       0.134144
  529 Fit       0.140227
  530 Fit       0.133616
  531 Fit       0.135220
  532 Fit       0.141278
  533 Fit       0.135363
  534 Fit       0.138207
  535 Fit       0.127992
  536 Fit       0.128313
  537 Fit       0.119177
  538 Fit       0.131547
  539 Fit       0.120463
  540 Fit       0.117546
  541 Fit       0.124776
  542 Fit       0.116692
  543 Fit       0.113997
  544 Fit       0.123875
  545 Fit       0.128288
  546 Fit       0.125951
  547 Fit       0.117413
  548 Fit       0.111311
  549 Fit       0.116629
  550 Fit       0.147057
  551 Fit       0.130206
  552 Fit       0.116960
  553 Fit       0.111377
  554 Fit       0.111360
  555 Fit       0.133597
  556 Fit       0.133631
  557 Fit       0.125766
  558 Fit       0.114939
  559 Fit       0.104796
  560 Fit       0.098865
  561 Fit       0.099028
  562 Fit       0.106083
  563 Fit       0.113701
  564 Fit       0.113084
  565 Fit       0.104625
  566 Fit       0.098023
  567 Fit       0.103118
  568 Fit       0.107793
  569 Fit       0.100066
  570 Fit       0.108200
  571 Fit       0.099380
  572 Fit       0.096896
  573 Fit       0.096457
  574 Fit       0.108941
  575 Fit       0.098577
  576 Fit       0.093865
  577 Fit       0.093042
  578 Fit       0.096360
  579 Fit       0.100237
  580 Fit       0.093931
  581 Fit       0.092468
  582 Fit       0.095998
  583 Fit       0.089067
  584 Fit       0.086216
  585 Fit       0.088165
  586 Fit       0.094489
  587 Fit       0.094587
  588 Fit       0.087952
  589 Fit       0.087057
  590 Fit       0.089064
  591 Fit       0.095405
  592 Fit       0.095772
  593 Fit       0.088987
  594 Fit       0.090824
  595 Fit       0.094966
  596 Fit       0.094934
  597 Fit       0.098748
  598 Fit       0.107872
  599 Fit       0.096232
  600 Fit       0.102811
  601 Fit       0.117433
  602 Fit       0.101533
  603 Fit       0.090433
  604 Fit       0.093686
  605 Fit       0.103706
  606 Fit       0.100970
  607 Fit       0.092744
  608 Fit       0.089542
  609 Fit       0.099146
  610 Fit       0.091484
  611 Fit       0.127592
  612 Fit       0.099640
  613 Fit       0.101774
  614 Fit       0.111696
  615 Fit       0.131620
  616 Fit       0.103131
  617 Fit       0.102973
  618 Fit       0.113625
  619 Fit       0.123895
  620 Fit       0.120733
  621 Fit       0.111427
  622 Fit       0.109334
  623 Fit       0.104760
  624 Fit       0.103764
  625 Fit       0.098239
  626 Fit       0.095576
  627 Fit       0.097937
  628 Fit       0.106038
  629 Fit       0.096471
  630 Fit       0.093305
  631 Fit       0.094241
  632 Fit       0.099271
  633 Fit       0.110529
  634 Fit       0.098947
  635 Fit       0.094507
  636 Fit       0.096337
  637 Fit       0.104416
  638 Fit       0.118741
  639 Fit       0.116756
  640 Fit       0.117636
  641 Fit       0.123630
  642 Fit       0.121290
  643 Fit       0.128703
  644 Fit       0.139876
  645 Fit       0.111130
  646 Fit       0.109862
  647 Fit       0.108341
  648 Fit       0.111750
  649 Fit       0.117477
  650 Fit       0.120307
  651 Fit       0.116007
  652 Fit       0.113752
  653 Fit       0.111161
  654 Fit       0.112008
  655 Fit       0.115675
  656 Fit       0.128179
  657 Fit       0.125217
  658 Fit       0.121340
  659 Fit       0.126772
  660 Fit       0.120388
  661 Fit       0.119882
  662 Fit       0.133935
  663 Fit       0.125042
  664 Fit       0.122022
  665 Fit       0.123513
  666 Fit       0.126317
  667 Fit       0.126602
  668 Fit       0.126079
  669 Fit       0.125382
  670 Fit       0.128997
  671 Fit       0.123850
  672 Fit       0.121158
  673 Fit       0.124574
  674 Fit       0.119557
  675 Fit       0.120840
  676 Fit       0.123772
  677 Fit       0.121864
  678 Fit       0.127255
  679 Fit       0.127812
  680 Fit       0.132374
  681 Fit       0.129586
  682 Fit       0.121680
  683 Fit       0.126713
  684 Fit       0.119992
  685 Fit       0.120014
  686 Fit       0.126381
  687 Fit       0.121960
  688 Fit       0.120867
  689 Fit       0.124024
  690 Fit       0.125806
  691 Fit       0.127134
  692 Fit       0.127668
  693 Fit       0.126191
  694 Fit       0.126273
  695 Fit       0.123197
  696 Fit       0.125582
  697 Fit       0.130908
  698 Fit       0.125884
  699 Fit       0.124744
  700 Fit       0.120643
  701 Fit       0.120934
  702 Fit       0.123605
  703 Fit       0.124641
  704 Fit       0.120256
  705 Fit       0.131029
  706 Fit       0.128361
  707 Fit       0.132998
  708 Fit       0.127931
  709 Fit       0.126773
  710 Fit       0.127576
  711 Fit       0.125650
  712 Fit       0.131723
  713 Fit       0.126882
  714 Fit       0.125768
  715 Fit       0.123878
  716 Fit       0.126853
  717 Fit       0.134939
  718 Fit       0.123808
  719 Fit       0.125074
  720 Fit       0.130816
  721 Fit       0.143815
  722 Fit       0.124891
  723 Fit       0.125493
  724 Fit       0.131151
  725 Fit       0.145308
  726 Fit       0.126360
  727 Fit       0.127571
  728 Fit       0.136130
  729 Fit       0.127890
  730 Fit       0.131891
  731 Fit       0.116809
  732 Fit       0.113083
  733 Fit       0.110905
  734 Fit       0.111795
  735 Fit       0.101006
  736 Fit       0.091892
  737 Fit       0.093614
  738 Fit       0.092107
  739 Fit       0.085446
  740 Fit       0.087172
  741 Fit       0.092656
  742 Fit       0.091438
  743 Fit       0.086605
  744 Fit       0.091488
  745 Fit       0.115072
  746 Fit       0.093567
  747 Fit       0.093447
  748 Fit       0.097343
  749 Fit       0.095571
  750 Fit       0.110021
  751 Fit       0.114820
  752 Fit       0.121277
  753 Fit       0.108998
  754 Fit       0.139491
  755 Fit       0.128800
  756 Fit       0.125847
  757 Fit       0.139798
  758 Fit       0.128863
  759 Fit       0.124754
  760 Fit       0.124815
  761 Fit       0.133247
  762 Fit       0.126018
  763 Fit       0.123663
  764 Fit       0.137536
  765 Fit       0.128991
  766 Fit       0.124912
  767 Fit       0.130107
  768 Fit       0.130112
  769 Fit       0.125743
  770 Fit       0.131105
  771 Fit       0.124332
  772 Fit       0.125969
  773 Fit       0.131530
  774 Fit       0.125978
  775 Fit       0.125805
  776 Fit       0.129924
  777 Fit       0.127328
  778 Fit       0.131266
  779 Fit       0.123637
  780 Fit       0.120206
  781 Fit       0.113964
  782 Fit       0.129868
  783 Fit       0.116678
  784 Fit       0.111773
  785 Fit       0.123688
  786 Fit       0.114562
  787 Fit       0.112178
  788 Fit       0.119747
  789 Fit       0.111275
  790 Fit       0.108586
  791 Fit       0.116911
  792 Fit       0.121103
  793 Fit       0.118974
  794 Fit       0.111579
  795 Fit       0.106253
  796 Fit       0.109922
  797 Fit       0.133615
  798 Fit       0.121209
  799 Fit       0.110427
  800 Fit       0.105422
  801 Fit       0.105340
  802 Fit       0.110028
  803 Fit       0.107964
  804 Fit       0.109574
  805 Fit       0.124853
  806 Fit       0.124541
  807 Fit       0.117758
  808 Fit       0.108225
  809 Fit       0.099556
  810 Fit       0.094334
  811 Fit       0.093228
  812 Fit       0.095218
  813 Fit       0.101389
  814 Fit       0.108050
  815 Fit       0.107495
  816 Fit       0.100176
  817 Fit       0.094449
  818 Fit       0.099042
  819 Fit       0.105736
  820 Fit       0.105871
  821 Fit       0.096993
  822 Fit       0.094612
  823 Fit       0.103103
  824 Fit       0.094303
  825 Fit       0.090335
  826 Fit       0.089961
  827 Fit       0.092184
  828 Fit       0.099536
  829 Fit       0.091866
  830 Fit       0.088415
  831 Fit       0.088317
  832 Fit       0.096114
  833 Fit       0.090167
  834 Fit       0.088942
  835 Fit       0.083308
  836 Fit       0.085193
  837 Fit       0.085009
  838 Fit       0.082288
  839 Fit       0.083831
  840 Fit       0.088719
  841 Fit       0.088926
  842 Fit       0.083755
  843 Fit       0.083765
  844 Fit       0.085665
  845 Fit       0.091630
  846 Fit       0.091840
  847 Fit       0.085642
  848 Fit       0.087760
  849 Fit       0.091700
  850 Fit       0.091655
  851 Fit       0.095365
  852 Fit       0.103993
  853 Fit       0.093426
  854 Fit       0.099411
  855 Fit       0.112164
  856 Fit       0.098217
  857 Fit       0.087698
  858 Fit       0.090722
  859 Fit       0.099677
  860 Fit       0.097274
  861 Fit       0.089783
  862 Fit       0.085667
  863 Fit       0.088099
  864 Fit       0.092987
  865 Fit       0.087182
  866 Fit       0.113857
  867 Fit       0.095597
  868 Fit       0.097713
  869 Fit       0.106355
  870 Fit       0.122371
  871 Fit       0.099392
  872 Fit       0.099319
  873 Fit       0.108319
  874 Fit       0.117051
  875 Fit       0.114836
  876 Fit       0.106652
  877 Fit       0.105038
  878 Fit       0.102047
  879 Fit       0.100847
  880 Fit       0.095401
  881 Fit       0.092526
  882 Fit       0.094733
  883 Fit       0.102557
  884 Fit       0.092503
  885 Fit       0.089468
  886 Fit       0.089968
  887 Fit       0.093982
  888 Fit       0.102838
  889 Fit       0.093106
  890 Fit       0.089298
  891 Fit       0.089552
  892 Fit       0.093539
  893 Fit       0.102604
  894 Fit       0.091763
  895 Fit       0.093500
  896 Fit       0.113731
  897 Fit       0.110813
  898 Fit       0.111112
  899 Fit       0.116197
  900 Fit       0.112074
  901 Fit       0.115573
  902 Fit       0.123216
  903 Fit       0.117932
  904 Fit       0.125142
  905 Fit       0.105865
  906 Fit       0.104320
  907 Fit       0.103070
  908 Fit       0.106276
  909 Fit       0.111387
  910 Fit       0.113564
  911 Fit       0.109621
  912 Fit       0.106616
  913 Fit       0.104321
  914 Fit       0.104987
  915 Fit       0.108213
  916 Fit       0.125019
  917 Fit       0.111998
 -----------------------------------------------------------------
 Leave Link  602 at Fri Aug 24 15:36:04 2018, MaxMem=   33554432 cpu:       0.3

 Test job not archived.
 1\1\GINC-NODE043\SP\RHF\6-31G(d)\C6H14N3(1+)\WULSDORT\24-Aug-2018\0\\#
 HF/6-31G* Geom=AllCheck Guess=Read Pop=(MK,ReadRadii) Integral=(Grid=U
 ltraFine) iop(6/33=2)\\Optimization for frag43-conf0\\1,1\N,0,2.677532
 1093,-1.0525569997,-0.5945617459\C,0,2.6026884841,0.1202286231,0.06458
 07186\N,0,1.6952124792,0.2120811327,1.0566347452\H,0,1.3527224426,1.10
 3401671,1.3823236664\H,0,1.3135280656,-0.6180147044,1.4877180799\N,0,3
 .3923703119,1.1454708322,-0.2537249283\C,0,4.0728903846,1.2679247456,-
 1.5666528168\C,0,3.715650935,2.6083886607,-2.2269946491\C,0,3.98969972
 73,3.8003001571,-1.3003482328\C,0,3.2879576044,3.6125923156,0.05259074
 56\C,0,3.6799506297,2.2691377448,0.6733850371\H,0,1.9200196995,-1.7196
 862898,-0.5521962519\H,0,3.5079377843,-1.3241896649,-1.0995610559\H,0,
 3.7659784244,0.4424869422,-2.2100896104\H,0,5.1539276489,1.1908982661,
 -1.3957199529\H,0,2.6558531268,2.5886239511,-2.5114175685\H,0,4.294117
 8779,2.6937926708,-3.1534030861\H,0,3.6554475208,4.727866264,-1.775412
 2779\H,0,5.0715682278,3.9017604008,-1.1380403025\H,0,2.1981162254,3.65
 71160971,-0.0752096986\H,0,3.5636873828,4.4112678502,0.7496816557\H,0,
 3.1885144328,2.0865119737,1.6297410081\H,0,4.7612037143,2.2446252482,0
 .8617055025\\Version=AM64L-G09RevC.01\State=1-A\HF=-398.5315046\RMSD=6
 .527e-09\Dipole=-0.8128376,-1.8374548,0.6616445\Quadrupole=-3.7974701,
 7.1227476,-3.3252775,5.7733587,-5.9544869,-0.9033683\PG=C01 [X(C6H14N3
 )]\\@


 NOBODY LOSES ALL THE TIME
 I HAD AN UNCLE NAMED
 SOL WHO WAS A BORN FAILURE AND
 NEARLY EVERYBODY SAID HE SHOULD HAVE GONE
 INTO VAUDEVILLE PERHAPS BECAUSE MY UNCLE SOL COULD
 SING MCCANN HE WAS A DIVER ON XMAS EVE LIKE HELL ITSELF WHICH
 MAY OR MAY NOT ACCOUNT FOR THE FACT THAT MY UNCLE
 SOL INDULGED IN THAT POSSIBLY MOST INEXCUSABLE
 OF ALL TO USE A HIGHFALOOTIN PHRASE
 LUXURIES THAT IS OR TO
 WIT FARMING AND BE
 IT NEEDLESSLY
 ADDED
 MY UNCLE SOL'S FARM
 FAILED BECAUSE THE CHICKENS
 ATE THE VEGETABLES SO
 MY UNCLE SOL HAD A
 CHICKEN FARM TILL THE
 SKUNKS ATE THE CHICKENS WHEN 
 MY UNCLE SOL
 HAD A SKUNK FARM BUT
 THE SKUNKS CAUGHT COLD AND
 DIED AND SO
 MY UNCLE SOL IMITATED THE
 SKUNKS IN A SUBTLE MANNER
 OR BY DROWNING HIMSELF IN THE WATERTANK
 BUT SOMEBODY WHO'D GIVEN MY UNCLE SOL A VICTOR
 VICTROLA AND RECORDS WHILE HE LIVED PRESENTED TO
 HIM UPON THE AUSPICIOUS OCCASION OF HIS DECEASE A
 SCRUMPTIOUS NOT TO MENTION SPLENDIFEROUS FUNERAL WITH
 TALL BOYS IN BLACK GLOVES AND FLOWERS AND EVERYTHING AND
 I REMEMBER WE ALL CRIED LIKE THE MISSOURI
 WHEN MY UNCLE SOL'S COFFIN LURCHED BECAUSE
 SOMEBODY PRESSED A BUTTON
 (AND DOWN WENT
 MY UNCLE
 SOL
 AND STARTED A WORM FARM)
           E. E. CUMMINGS
 Job cpu time:  0 days  0 hours  0 minutes 58.5 seconds.
 File lengths (MBytes):  RWF=     17 Int=      0 D2E=      0 Chk=      3 Scr=      1
 Normal termination of Gaussian 09 at Fri Aug 24 15:36:05 2018.
