 Entering Gaussian System, Link 0=g09
 Initial command:
 /home/fb_chem/chemsoft/lx24-amd64/Gaussian_09_C.01_NBO_3.1_64_istanbul-64/g09/l1.exe /local/2659142.1.parallel_long/Gau-17550.inp -scrdir=/local/2659142.1.parallel_long/
 Entering Link 1 = /home/fb_chem/chemsoft/lx24-amd64/Gaussian_09_C.01_NBO_3.1_64_istanbul-64/g09/l1.exe PID=     17552.
  
 Copyright (c) 1988,1990,1992,1993,1995,1998,2003,2009,2011,
            Gaussian, Inc.  All Rights Reserved.
  
 This is part of the Gaussian(R) 09 program.  It is based on
 the Gaussian(R) 03 system (copyright 2003, Gaussian, Inc.),
 the Gaussian(R) 98 system (copyright 1998, Gaussian, Inc.),
 the Gaussian(R) 94 system (copyright 1995, Gaussian, Inc.),
 the Gaussian 92(TM) system (copyright 1992, Gaussian, Inc.),
 the Gaussian 90(TM) system (copyright 1990, Gaussian, Inc.),
 the Gaussian 88(TM) system (copyright 1988, Gaussian, Inc.),
 the Gaussian 86(TM) system (copyright 1986, Carnegie Mellon
 University), and the Gaussian 82(TM) system (copyright 1983,
 Carnegie Mellon University). Gaussian is a federally registered
 trademark of Gaussian, Inc.
  
 This software contains proprietary and confidential information,
 including trade secrets, belonging to Gaussian, Inc.
  
 This software is provided under written license and may be
 used, copied, transmitted, or stored only in accord with that
 written license.
  
 The following legend is applicable only to US Government
 contracts under FAR:
  
                    RESTRICTED RIGHTS LEGEND
  
 Use, reproduction and disclosure by the US Government is
 subject to restrictions as set forth in subparagraphs (a)
 and (c) of the Commercial Computer Software - Restricted
 Rights clause in FAR 52.227-19.
  
 Gaussian, Inc.
 340 Quinnipiac St., Bldg. 40, Wallingford CT 06492
  
  
 ---------------------------------------------------------------
 Warning -- This program may not be used in any manner that
 competes with the business of Gaussian, Inc. or will provide
 assistance to any competitor of Gaussian, Inc.  The licensee
 of this program is prohibited from giving any competitor of
 Gaussian, Inc. access to this program.  By using this program,
 the user acknowledges that Gaussian, Inc. is engaged in the
 business of creating and licensing software in the field of
 computational chemistry and represents and warrants to the
 licensee that it is not a competitor of Gaussian, Inc. and that
 it will not use this program in any manner prohibited above.
 ---------------------------------------------------------------
  

 Cite this work as:
 Gaussian 09, Revision C.01,
 M. J. Frisch, G. W. Trucks, H. B. Schlegel, G. E. Scuseria, 
 M. A. Robb, J. R. Cheeseman, G. Scalmani, V. Barone, B. Mennucci, 
 G. A. Petersson, H. Nakatsuji, M. Caricato, X. Li, H. P. Hratchian, 
 A. F. Izmaylov, J. Bloino, G. Zheng, J. L. Sonnenberg, M. Hada, 
 M. Ehara, K. Toyota, R. Fukuda, J. Hasegawa, M. Ishida, T. Nakajima, 
 Y. Honda, O. Kitao, H. Nakai, T. Vreven, J. A. Montgomery, Jr., 
 J. E. Peralta, F. Ogliaro, M. Bearpark, J. J. Heyd, E. Brothers, 
 K. N. Kudin, V. N. Staroverov, T. Keith, R. Kobayashi, J. Normand, 
 K. Raghavachari, A. Rendell, J. C. Burant, S. S. Iyengar, J. Tomasi, 
 M. Cossi, N. Rega, J. M. Millam, M. Klene, J. E. Knox, J. B. Cross, 
 V. Bakken, C. Adamo, J. Jaramillo, R. Gomperts, R. E. Stratmann, 
 O. Yazyev, A. J. Austin, R. Cammi, C. Pomelli, J. W. Ochterski, 
 R. L. Martin, K. Morokuma, V. G. Zakrzewski, G. A. Voth, 
 P. Salvador, J. J. Dannenberg, S. Dapprich, A. D. Daniels, 
 O. Farkas, J. B. Foresman, J. V. Ortiz, J. Cioslowski, 
 and D. J. Fox, Gaussian, Inc., Wallingford CT, 2010.
 
 ******************************************
 Gaussian 09:  AM64L-G09RevC.01 23-Sep-2011
                24-Aug-2018 
 ******************************************
 %nprocs=8
 Will use up to    8 processors via shared memory.
 %chk=frag43-conf0.chk
 ---------------------------------------------------------
 #B3LYP/6-31G* Integral=(Grid=UltraFine) freq Opt pop=none
 ---------------------------------------------------------
 1/14=-1,18=20,19=15,26=3,38=1/1,3;
 2/9=110,12=2,17=6,18=5,40=1/2;
 3/5=1,6=6,7=1,11=2,16=1,25=1,30=1,71=1,74=-5,75=-5/1,2,3;
 4//1;
 5/5=2,38=5/2;
 7//1,2,3,16;
 1/14=-1,18=20,19=15/3(2);
 2/9=110/2;
 99//99;
 2/9=110/2;
 3/5=1,6=6,7=1,11=2,16=1,25=1,30=1,71=1,74=-5,75=-5/1,2,3;
 4/5=5,16=3/1;
 5/5=2,38=5/2;
 7//1,2,3,16;
 1/14=-1,18=20,19=15/3(-5);
 2/9=110/2;
 99/9=1/99;
 -----------------------------
 Optimization for frag43-conf0
 -----------------------------
 Charge =  1 Multiplicity = 1
 Symbolic Z-Matrix:
 N                     2.56363  -1.0326   -0.66742 
 C                     2.59023   0.07848   0.09525 
 N                     1.85715   0.02426   1.22417 
 H                     1.75847   0.8096    1.84954 
 H                     1.33853  -0.80718   1.47409 
 N                     3.32448   1.18383  -0.25052 
 C                     4.07289   1.28641  -1.53523 
 C                     3.79053   2.60816  -2.241 
 C                     4.07604   3.79084  -1.32528 
 C                     3.26725   3.67395  -0.03925 
 C                     3.52856   2.34545   0.66217 
 H                     2.01601  -1.84012  -0.40169 
 H                     3.11279  -1.13055  -1.5082 
 H                     3.80268   0.47835  -2.21627 
 H                     5.13942   1.19002  -1.30253 
 H                     2.73824   2.63593  -2.54988 
 H                     4.39864   2.68267  -3.14903 
 H                     3.8277    4.72684  -1.8376 
 H                     5.14656   3.82582  -1.0889 
 H                     2.19936   3.75621  -0.27499 
 H                     3.51697   4.50291   0.63226 
 H                     2.88514   2.28233   1.54022 
 H                     4.56532   2.29845   1.0151 
 

 GradGradGradGradGradGradGradGradGradGradGradGradGradGradGradGradGradGrad
 Berny optimization.
 Initialization pass.
                           ----------------------------
                           !    Initial Parameters    !
                           ! (Angstroms and Degrees)  !
 --------------------------                            --------------------------
 ! Name  Definition              Value          Derivative Info.                !
 --------------------------------------------------------------------------------
 ! R1    R(1,2)                  1.3479         estimate D2E/DX2                !
 ! R2    R(1,12)                 1.0112         estimate D2E/DX2                !
 ! R3    R(1,13)                 1.009          estimate D2E/DX2                !
 ! R4    R(2,3)                  1.3471         estimate D2E/DX2                !
 ! R5    R(2,6)                  1.3713         estimate D2E/DX2                !
 ! R6    R(3,4)                  1.0088         estimate D2E/DX2                !
 ! R7    R(3,5)                  1.0113         estimate D2E/DX2                !
 ! R8    R(6,7)                  1.4903         estimate D2E/DX2                !
 ! R9    R(6,11)                 1.4913         estimate D2E/DX2                !
 ! R10   R(7,8)                  1.5247         estimate D2E/DX2                !
 ! R11   R(7,14)                 1.0908         estimate D2E/DX2                !
 ! R12   R(7,15)                 1.0959         estimate D2E/DX2                !
 ! R13   R(8,9)                  1.5228         estimate D2E/DX2                !
 ! R14   R(8,16)                 1.097          estimate D2E/DX2                !
 ! R15   R(8,17)                 1.0954         estimate D2E/DX2                !
 ! R16   R(9,10)                 1.5237         estimate D2E/DX2                !
 ! R17   R(9,18)                 1.0956         estimate D2E/DX2                !
 ! R18   R(9,19)                 1.0969         estimate D2E/DX2                !
 ! R19   R(10,11)                1.5249         estimate D2E/DX2                !
 ! R20   R(10,20)                1.0967         estimate D2E/DX2                !
 ! R21   R(10,21)                1.0956         estimate D2E/DX2                !
 ! R22   R(11,22)                1.0904         estimate D2E/DX2                !
 ! R23   R(11,23)                1.0962         estimate D2E/DX2                !
 ! A1    A(2,1,12)             121.3484         estimate D2E/DX2                !
 ! A2    A(2,1,13)             122.7355         estimate D2E/DX2                !
 ! A3    A(12,1,13)            115.861          estimate D2E/DX2                !
 ! A4    A(1,2,3)              115.4833         estimate D2E/DX2                !
 ! A5    A(1,2,6)              122.1622         estimate D2E/DX2                !
 ! A6    A(3,2,6)              122.3519         estimate D2E/DX2                !
 ! A7    A(2,3,4)              122.7803         estimate D2E/DX2                !
 ! A8    A(2,3,5)              121.2822         estimate D2E/DX2                !
 ! A9    A(4,3,5)              115.8928         estimate D2E/DX2                !
 ! A10   A(2,6,7)              122.8014         estimate D2E/DX2                !
 ! A11   A(2,6,11)             123.1485         estimate D2E/DX2                !
 ! A12   A(7,6,11)             113.9052         estimate D2E/DX2                !
 ! A13   A(6,7,8)              111.4496         estimate D2E/DX2                !
 ! A14   A(6,7,14)             111.2735         estimate D2E/DX2                !
 ! A15   A(6,7,15)             107.4357         estimate D2E/DX2                !
 ! A16   A(8,7,14)             107.8967         estimate D2E/DX2                !
 ! A17   A(8,7,15)             110.7789         estimate D2E/DX2                !
 ! A18   A(14,7,15)            107.9697         estimate D2E/DX2                !
 ! A19   A(7,8,9)              111.1117         estimate D2E/DX2                !
 ! A20   A(7,8,16)             109.2628         estimate D2E/DX2                !
 ! A21   A(7,8,17)             109.8689         estimate D2E/DX2                !
 ! A22   A(9,8,16)             109.2388         estimate D2E/DX2                !
 ! A23   A(9,8,17)             109.973          estimate D2E/DX2                !
 ! A24   A(16,8,17)            107.301          estimate D2E/DX2                !
 ! A25   A(8,9,10)             110.3925         estimate D2E/DX2                !
 ! A26   A(8,9,18)             109.8671         estimate D2E/DX2                !
 ! A27   A(8,9,19)             109.7163         estimate D2E/DX2                !
 ! A28   A(10,9,18)            109.8711         estimate D2E/DX2                !
 ! A29   A(10,9,19)            109.7926         estimate D2E/DX2                !
 ! A30   A(18,9,19)            107.1432         estimate D2E/DX2                !
 ! A31   A(9,10,11)            111.3524         estimate D2E/DX2                !
 ! A32   A(9,10,20)            109.2496         estimate D2E/DX2                !
 ! A33   A(9,10,21)            109.7708         estimate D2E/DX2                !
 ! A34   A(11,10,20)           109.3358         estimate D2E/DX2                !
 ! A35   A(11,10,21)           109.7665         estimate D2E/DX2                !
 ! A36   A(20,10,21)           107.273          estimate D2E/DX2                !
 ! A37   A(6,11,10)            111.9413         estimate D2E/DX2                !
 ! A38   A(6,11,22)            111.5299         estimate D2E/DX2                !
 ! A39   A(6,11,23)            107.0423         estimate D2E/DX2                !
 ! A40   A(10,11,22)           108.6458         estimate D2E/DX2                !
 ! A41   A(10,11,23)           110.3364         estimate D2E/DX2                !
 ! A42   A(22,11,23)           107.238          estimate D2E/DX2                !
 ! D1    D(12,1,2,3)             0.718          estimate D2E/DX2                !
 ! D2    D(12,1,2,6)          -179.8547         estimate D2E/DX2                !
 ! D3    D(13,1,2,3)          -176.4708         estimate D2E/DX2                !
 ! D4    D(13,1,2,6)             2.9565         estimate D2E/DX2                !
 ! D5    D(1,2,3,4)           -176.616          estimate D2E/DX2                !
 ! D6    D(1,2,3,5)              0.8521         estimate D2E/DX2                !
 ! D7    D(6,2,3,4)              3.9578         estimate D2E/DX2                !
 ! D8    D(6,2,3,5)           -178.5741         estimate D2E/DX2                !
 ! D9    D(1,2,6,7)              4.3958         estimate D2E/DX2                !
 ! D10   D(1,2,6,11)          -170.9591         estimate D2E/DX2                !
 ! D11   D(3,2,6,7)           -176.2162         estimate D2E/DX2                !
 ! D12   D(3,2,6,11)             8.429          estimate D2E/DX2                !
 ! D13   D(2,6,7,8)            131.4808         estimate D2E/DX2                !
 ! D14   D(2,6,7,14)            10.9976         estimate D2E/DX2                !
 ! D15   D(2,6,7,15)          -106.9912         estimate D2E/DX2                !
 ! D16   D(11,6,7,8)           -52.7725         estimate D2E/DX2                !
 ! D17   D(11,6,7,14)         -173.2558         estimate D2E/DX2                !
 ! D18   D(11,6,7,15)           68.7554         estimate D2E/DX2                !
 ! D19   D(2,6,11,10)         -132.2499         estimate D2E/DX2                !
 ! D20   D(2,6,11,22)          -10.2808         estimate D2E/DX2                !
 ! D21   D(2,6,11,23)          106.7285         estimate D2E/DX2                !
 ! D22   D(7,6,11,10)           52.0203         estimate D2E/DX2                !
 ! D23   D(7,6,11,22)          173.9894         estimate D2E/DX2                !
 ! D24   D(7,6,11,23)          -69.0014         estimate D2E/DX2                !
 ! D25   D(6,7,8,9)             54.6396         estimate D2E/DX2                !
 ! D26   D(6,7,8,16)           -65.9636         estimate D2E/DX2                !
 ! D27   D(6,7,8,17)           176.568          estimate D2E/DX2                !
 ! D28   D(14,7,8,9)           177.0865         estimate D2E/DX2                !
 ! D29   D(14,7,8,16)           56.4833         estimate D2E/DX2                !
 ! D30   D(14,7,8,17)          -60.9851         estimate D2E/DX2                !
 ! D31   D(15,7,8,9)           -64.9254         estimate D2E/DX2                !
 ! D32   D(15,7,8,16)          174.4714         estimate D2E/DX2                !
 ! D33   D(15,7,8,17)           57.003          estimate D2E/DX2                !
 ! D34   D(7,8,9,10)           -56.3615         estimate D2E/DX2                !
 ! D35   D(7,8,9,18)          -177.6876         estimate D2E/DX2                !
 ! D36   D(7,8,9,19)            64.7684         estimate D2E/DX2                !
 ! D37   D(16,8,9,10)           64.256          estimate D2E/DX2                !
 ! D38   D(16,8,9,18)          -57.0702         estimate D2E/DX2                !
 ! D39   D(16,8,9,19)         -174.6142         estimate D2E/DX2                !
 ! D40   D(17,8,9,10)         -178.2292         estimate D2E/DX2                !
 ! D41   D(17,8,9,18)           60.4446         estimate D2E/DX2                !
 ! D42   D(17,8,9,19)          -57.0993         estimate D2E/DX2                !
 ! D43   D(8,9,10,11)           55.4749         estimate D2E/DX2                !
 ! D44   D(8,9,10,20)          -65.3942         estimate D2E/DX2                !
 ! D45   D(8,9,10,21)          177.236          estimate D2E/DX2                !
 ! D46   D(18,9,10,11)         176.7987         estimate D2E/DX2                !
 ! D47   D(18,9,10,20)          55.9296         estimate D2E/DX2                !
 ! D48   D(18,9,10,21)         -61.4401         estimate D2E/DX2                !
 ! D49   D(19,9,10,11)         -65.6096         estimate D2E/DX2                !
 ! D50   D(19,9,10,20)         173.5213         estimate D2E/DX2                !
 ! D51   D(19,9,10,21)          56.1515         estimate D2E/DX2                !
 ! D52   D(9,10,11,6)          -52.9759         estimate D2E/DX2                !
 ! D53   D(9,10,11,22)        -176.5826         estimate D2E/DX2                !
 ! D54   D(9,10,11,23)          66.1199         estimate D2E/DX2                !
 ! D55   D(20,10,11,6)          67.8427         estimate D2E/DX2                !
 ! D56   D(20,10,11,22)        -55.764          estimate D2E/DX2                !
 ! D57   D(20,10,11,23)       -173.0615         estimate D2E/DX2                !
 ! D58   D(21,10,11,6)        -174.7395         estimate D2E/DX2                !
 ! D59   D(21,10,11,22)         61.6537         estimate D2E/DX2                !
 ! D60   D(21,10,11,23)        -55.6437         estimate D2E/DX2                !
 --------------------------------------------------------------------------------
 Trust Radius=3.00D-01 FncErr=1.00D-07 GrdErr=1.00D-06
 Number of steps in this run=    135 maximum allowed number of steps=    138.
 GradGradGradGradGradGradGradGradGradGradGradGradGradGradGradGradGradGrad

                          Input orientation:                          
 ---------------------------------------------------------------------
 Center     Atomic      Atomic             Coordinates (Angstroms)
 Number     Number       Type             X           Y           Z
 ---------------------------------------------------------------------
      1          7           0        2.563627   -1.032604   -0.667425
      2          6           0        2.590225    0.078477    0.095255
      3          7           0        1.857152    0.024259    1.224169
      4          1           0        1.758468    0.809603    1.849544
      5          1           0        1.338534   -0.807176    1.474091
      6          7           0        3.324480    1.183826   -0.250524
      7          6           0        4.072891    1.286410   -1.535227
      8          6           0        3.790528    2.608157   -2.241000
      9          6           0        4.076040    3.790836   -1.325277
     10          6           0        3.267245    3.673948   -0.039247
     11          6           0        3.528564    2.345445    0.662166
     12          1           0        2.016011   -1.840124   -0.401692
     13          1           0        3.112794   -1.130554   -1.508199
     14          1           0        3.802675    0.478348   -2.216269
     15          1           0        5.139417    1.190021   -1.302531
     16          1           0        2.738238    2.635925   -2.549878
     17          1           0        4.398636    2.682671   -3.149025
     18          1           0        3.827698    4.726839   -1.837595
     19          1           0        5.146559    3.825824   -1.088898
     20          1           0        2.199362    3.756214   -0.274989
     21          1           0        3.516966    4.502905    0.632256
     22          1           0        2.885141    2.282329    1.540223
     23          1           0        4.565323    2.298449    1.015100
 ---------------------------------------------------------------------
                    Distance matrix (angstroms):
                    1          2          3          4          5
     1  N    0.000000
     2  C    1.347920   0.000000
     3  N    2.279077   1.347139   0.000000
     4  H    3.221357   2.074584   1.008761   0.000000
     5  H    2.477450   2.062111   1.011291   1.712099   0.000000
     6  N    2.380182   1.371309   2.381673   2.646265   3.298843
     7  C    2.899790   2.513139   3.757232   4.128023   4.573380
     8  C    4.151694   3.646655   4.735173   4.908830   5.610586
     9  C    5.097621   4.243484   5.060656   4.933394   6.039214
    10  C    4.800138   3.661128   4.111547   3.748122   5.107895
    11  C    3.756346   2.518137   2.915025   2.627150   3.923579
    12  H    1.011230   2.063422   2.478828   3.486467   2.246001
    13  H    1.009000   2.075066   3.221190   4.107658   3.485201
    14  H    2.493419   2.640658   3.978426   4.562823   4.619883
    15  H    3.460942   3.112509   4.303078   4.638007   5.113231
    16  H    4.127012   3.682278   4.673387   4.863159   5.477813
    17  H    4.829996   4.536245   5.714116   5.955213   6.551065
    18  H    6.011518   5.184063   5.947412   5.763805   6.912924
    19  H    5.518469   4.688248   5.533749   5.404738   6.521860
    20  H    4.818659   3.716935   4.036344   3.659310   4.962342
    21  H    5.765404   4.552228   4.812860   4.267855   5.800967
    22  H    3.995731   2.651768   2.501107   1.879892   3.455634
    23  H    4.234807   3.110530   3.542576   3.285026   4.501971
                    6          7          8          9         10
     6  N    0.000000
     7  C    1.490337   0.000000
     8  C    2.491569   1.524749   0.000000
     9  C    2.918293   2.513213   1.522759   0.000000
    10  C    2.499724   2.930420   2.501490   1.523707   0.000000
    11  C    1.491312   2.499277   2.926776   2.517700   1.524857
    12  H    3.298366   3.910354   5.130221   6.066666   5.665858
    13  H    2.642520   2.600813   3.869661   5.018105   5.026422
    14  H    2.142552   1.090779   2.129987   3.441101   3.903585
    15  H    2.097798   1.095863   2.170561   2.809898   3.357202
    16  H    2.781960   2.152210   1.097037   2.150158   2.767780
    17  H    3.435354   2.158703   1.095380   2.158276   3.454474
    18  H    3.914711   3.462383   2.157065   1.095557   2.157948
    19  H    3.317077   2.792955   2.156125   1.096863   2.157928
    20  H    2.807787   3.346378   2.777597   2.150866   1.096684
    21  H    3.439860   3.918275   3.452609   2.156743   1.095649
    22  H    2.146276   3.443980   3.901735   3.450351   2.139471
    23  H    2.093772   2.787630   3.361312   2.818507   2.165330
                   11         12         13         14         15
    11  C    0.000000
    12  H    4.575872   0.000000
    13  H    4.118971   1.711952   0.000000
    14  H    3.441887   3.443860   1.888349   0.000000
    15  H    2.791037   4.443980   3.087809   1.768694   0.000000
    16  H    3.320575   5.017104   3.925780   2.428881   3.067927
    17  H    3.923764   5.803483   4.345846   2.466626   2.487228
    18  H    3.465447   6.961970   5.910045   4.265407   3.809984
    19  H    2.806360   6.509651   5.373797   3.779231   2.644457
    20  H    2.152976   5.600775   5.122076   4.133230   4.035482
    21  H    2.157698   6.599692   6.039931   4.938906   4.165447
    22  H    1.090395   4.639078   4.581755   4.267020   3.788951
    23  H    1.096194   5.063011   4.498326   3.786311   2.632415
                   16         17         18         19         20
    16  H    0.000000
    17  H    1.765809   0.000000
    18  H    2.462963   2.494883   0.000000
    19  H    3.057831   2.471905   1.764020   0.000000
    20  H    2.592403   3.774835   2.456690   3.058310   0.000000
    21  H    3.770677   4.288203   2.499373   2.465032   1.765424
    22  H    4.107984   4.943682   4.274774   3.795875   2.436724
    23  H    4.020099   4.185135   3.818251   2.664117   3.063851
                   21         22         23
    21  H    0.000000
    22  H    2.480839   0.000000
    23  H    2.470881   1.760406   0.000000
 Stoichiometry    C6H14N3(1+)
 Framework group  C1[X(C6H14N3)]
 Deg. of freedom    63
 Full point group                 C1      NOp   1
 Largest Abelian subgroup         C1      NOp   1
 Largest concise Abelian subgroup C1      NOp   1
                         Standard orientation:                         
 ---------------------------------------------------------------------
 Center     Atomic      Atomic             Coordinates (Angstroms)
 Number     Number       Type             X           Y           Z
 ---------------------------------------------------------------------
      1          7           0       -2.416295   -1.117813   -0.090117
      2          6           0       -1.682044    0.010917   -0.029007
      3          7           0       -2.358571    1.155036   -0.248292
      4          1           0       -1.909616    2.057897   -0.277968
      5          1           0       -3.353090    1.150124   -0.431643
      6          7           0       -0.339490   -0.005799    0.249844
      7          6           0        0.435533   -1.268254    0.413096
      8          6           0        1.721492   -1.242913   -0.405762
      9          6           0        2.561142   -0.017597   -0.070521
     10          6           0        1.751592    1.255443   -0.284256
     11          6           0        0.453619    1.228855    0.515586
     12          1           0       -3.405377   -1.091343   -0.298931
     13          1           0       -2.032415   -2.029807    0.107324
     14          1           0       -0.146984   -2.134107    0.095651
     15          1           0        0.656437   -1.382256    1.480393
     16          1           0        1.470371   -1.227914   -1.473565
     17          1           0        2.299303   -2.154725   -0.219780
     18          1           0        3.458589    0.001951   -0.698575
     19          1           0        2.897302   -0.073331    0.972071
     20          1           0        1.518829    1.361123   -1.350731
     21          1           0        2.348186    2.127226    0.006463
     22          1           0       -0.117080    2.128649    0.283995
     23          1           0        0.668027    1.247833    1.590439
 ---------------------------------------------------------------------
 Rotational constants (GHZ):      3.0058022      1.1500772      0.8930724
 Standard basis: 6-31G(d) (6D, 7F)
 There are   163 symmetry adapted basis functions of A   symmetry.
 Integral buffers will be    131072 words long.
 Raffenetti 2 integral format.
 Two-electron integral symmetry is turned on.
   163 basis functions,   308 primitive gaussians,   163 cartesian basis functions
    35 alpha electrons       35 beta electrons
       nuclear repulsion energy       493.1446056841 Hartrees.
 NAtoms=   23 NActive=   23 NUniq=   23 SFac= 1.00D+00 NAtFMM=   60 NAOKFM=F Big=F
 One-electron integrals computed using PRISM.
 NBasis=   163 RedAO= T  NBF=   163
 NBsUse=   163 1.00D-06 NBFU=   163
 Harris functional with IExCor=  402 diagonalized for initial guess.
 ExpMin= 1.61D-01 ExpMax= 4.17D+03 ExpMxC= 6.27D+02 IAcc=3 IRadAn=         5 AccDes= 0.00D+00
 HarFok:  IExCor=  402 AccDes= 0.00D+00 IRadAn=         5 IDoV= 1
 ScaDFX=  1.000000  1.000000  1.000000  1.000000
 FoFCou: FMM=F IPFlag=           0 FMFlag=      100000 FMFlg1=           0
         NFxFlg=           0 DoJE=T BraDBF=F KetDBF=T FulRan=T
         Omega=  0.000000  0.000000  1.000000  0.000000  0.000000 ICntrl=     500 IOpCl=  0
         NMat0=    1 NMatS0=    1 NMatT0=    0 NMatD0=    1 NMtDS0=    0 NMtDT0=    0
         I1Cent=           4 NGrid=           0.
 Petite list used in FoFCou.
 Initial guess orbital symmetries:
       Occupied  (A) (A) (A) (A) (A) (A) (A) (A) (A) (A) (A) (A)
                 (A) (A) (A) (A) (A) (A) (A) (A) (A) (A) (A) (A)
                 (A) (A) (A) (A) (A) (A) (A) (A) (A) (A) (A)
       Virtual   (A) (A) (A) (A) (A) (A) (A) (A) (A) (A) (A) (A)
                 (A) (A) (A) (A) (A) (A) (A) (A) (A) (A) (A) (A)
                 (A) (A) (A) (A) (A) (A) (A) (A) (A) (A) (A) (A)
                 (A) (A) (A) (A) (A) (A) (A) (A) (A) (A) (A) (A)
                 (A) (A) (A) (A) (A) (A) (A) (A) (A) (A) (A) (A)
                 (A) (A) (A) (A) (A) (A) (A) (A) (A) (A) (A) (A)
                 (A) (A) (A) (A) (A) (A) (A) (A) (A) (A) (A) (A)
                 (A) (A) (A) (A) (A) (A) (A) (A) (A) (A) (A) (A)
                 (A) (A) (A) (A) (A) (A) (A) (A) (A) (A) (A) (A)
                 (A) (A) (A) (A) (A) (A) (A) (A) (A) (A) (A) (A)
                 (A) (A) (A) (A) (A) (A) (A) (A)
 The electronic state of the initial guess is 1-A.
 Requested convergence on RMS density matrix=1.00D-08 within 128 cycles.
 Requested convergence on MAX density matrix=1.00D-06.
 Requested convergence on             energy=1.00D-06.
 No special actions if energy rises.
 Integral accuracy reduced to 1.0D-05 until final iterations.
 Initial convergence to 1.0D-05 achieved.  Increase integral accuracy.
 SCF Done:  E(RB3LYP) =  -401.124189618     A.U. after   13 cycles
             Convg  =    0.8769D-08             -V/T =  2.0102
 Calling FoFJK, ICntrl=      2127 FMM=F ISym2X=0 I1Cent= 0 IOpClX= 0 NMat=1 NMatS=1 NMatT=0.
 ***** Axes restored to original set *****
 -------------------------------------------------------------------
 Center     Atomic                   Forces (Hartrees/Bohr)
 Number     Number              X              Y              Z
 -------------------------------------------------------------------
      1        7           0.002948260    0.002551141   -0.004655385
      2        6           0.013121776    0.016391140   -0.004880603
      3        7           0.001487700    0.005133166    0.002267233
      4        1           0.000486006   -0.000461134   -0.001732516
      5        1           0.001580176    0.000609192   -0.001340756
      6        7          -0.020133494   -0.021220890    0.005099322
      7        6           0.000599143   -0.003957121    0.000799474
      8        6          -0.002475416    0.005049137   -0.000789061
      9        6           0.001209958    0.004941961   -0.002088100
     10        6          -0.002240175    0.003507008   -0.003681907
     11        6           0.000640410   -0.001948765    0.001820144
     12        1          -0.000463748    0.002332972    0.000287232
     13        1           0.000539068    0.000791208    0.002159471
     14        1          -0.000674482   -0.002369304    0.002805135
     15        1           0.001159845   -0.000504357   -0.000256272
     16        1          -0.000204849   -0.001293443   -0.001191218
     17        1           0.000304981   -0.003752463    0.000067532
     18        1           0.001143184   -0.000035158    0.000475403
     19        1           0.001468360    0.000895269   -0.000011510
     20        1          -0.001065564    0.000117643    0.001120576
     21        1          -0.000677391   -0.002499225    0.002876498
     22        1           0.000396844   -0.003647313    0.000159578
     23        1           0.000849408   -0.000630661    0.000689730
 -------------------------------------------------------------------
 Cartesian Forces:  Max     0.021220890 RMS     0.004851094

 GradGradGradGradGradGradGradGradGradGradGradGradGradGradGradGradGradGrad
 Berny optimization.
 Internal  Forces:  Max     0.034585030 RMS     0.003617308
 Search for a local minimum.
 Step number   1 out of a maximum of  135
 All quantities printed in internal units (Hartrees-Bohrs-Radians)
 Mixed Optimization -- RFO/linear search
 Second derivative matrix not updated -- first step.
 ITU=  0
     Eigenvalues ---    0.00631   0.00666   0.00718   0.01067   0.02071
     Eigenvalues ---    0.02261   0.02272   0.02381   0.02388   0.02391
     Eigenvalues ---    0.02397   0.02748   0.04061   0.04253   0.04467
     Eigenvalues ---    0.04962   0.05062   0.05631   0.05924   0.06127
     Eigenvalues ---    0.06877   0.08002   0.08105   0.08141   0.08366
     Eigenvalues ---    0.09130   0.09239   0.09465   0.12036   0.12444
     Eigenvalues ---    0.16000   0.16000   0.16000   0.16000   0.16077
     Eigenvalues ---    0.16656   0.22513   0.24891   0.24999   0.24999
     Eigenvalues ---    0.28427   0.29057   0.29299   0.29909   0.32607
     Eigenvalues ---    0.32734   0.34012   0.34031   0.34051   0.34107
     Eigenvalues ---    0.34144   0.34168   0.34178   0.34198   0.34723
     Eigenvalues ---    0.34767   0.45757   0.45767   0.46140   0.46181
     Eigenvalues ---    0.50726   0.55466   0.55635
 RFO step:  Lambda=-4.92034413D-03 EMin= 6.31230258D-03
 Linear search not attempted -- first point.
 Iteration  1 RMS(Cart)=  0.03560136 RMS(Int)=  0.00033103
 Iteration  2 RMS(Cart)=  0.00038444 RMS(Int)=  0.00010607
 Iteration  3 RMS(Cart)=  0.00000007 RMS(Int)=  0.00010607
 Variable       Old X    -DE/DX   Delta X   Delta X   Delta X     New X
                                 (Linear)    (Quad)   (Total)
    R1        2.54720  -0.00349   0.00000  -0.00623  -0.00623   2.54097
    R2        1.91095  -0.00154   0.00000  -0.00332  -0.00332   1.90763
    R3        1.90673  -0.00158   0.00000  -0.00339  -0.00339   1.90334
    R4        2.54572  -0.00282   0.00000  -0.00503  -0.00503   2.54069
    R5        2.59140  -0.03459   0.00000  -0.06753  -0.06753   2.52387
    R6        1.90628  -0.00148   0.00000  -0.00317  -0.00317   1.90311
    R7        1.91106  -0.00164   0.00000  -0.00355  -0.00355   1.90751
    R8        2.81633  -0.00395   0.00000  -0.01367  -0.01367   2.80266
    R9        2.81817  -0.00392   0.00000  -0.01456  -0.01456   2.80361
   R10        2.88136   0.00411   0.00000   0.01425   0.01426   2.89562
   R11        2.06127   0.00017   0.00000   0.00049   0.00049   2.06176
   R12        2.07088   0.00112   0.00000   0.00323   0.00323   2.07411
   R13        2.87760   0.00554   0.00000   0.02131   0.02132   2.89892
   R14        2.07310   0.00050   0.00000   0.00145   0.00145   2.07455
   R15        2.06997  -0.00014   0.00000  -0.00041  -0.00041   2.06956
   R16        2.87939   0.00532   0.00000   0.01965   0.01965   2.89904
   R17        2.07030  -0.00051   0.00000  -0.00147  -0.00147   2.06883
   R18        2.07277   0.00146   0.00000   0.00422   0.00422   2.07699
   R19        2.88156   0.00385   0.00000   0.01192   0.01191   2.89347
   R20        2.07243   0.00081   0.00000   0.00234   0.00234   2.07477
   R21        2.07048  -0.00028   0.00000  -0.00082  -0.00082   2.06966
   R22        2.06055   0.00011   0.00000   0.00030   0.00030   2.06085
   R23        2.07151   0.00105   0.00000   0.00304   0.00304   2.07455
    A1        2.11793  -0.00113   0.00000  -0.00694  -0.00694   2.11099
    A2        2.14214  -0.00061   0.00000  -0.00376  -0.00376   2.13837
    A3        2.02216   0.00173   0.00000   0.01040   0.01039   2.03255
    A4        2.01556   0.00939   0.00000   0.03687   0.03686   2.05243
    A5        2.13213  -0.00475   0.00000  -0.01859  -0.01860   2.11353
    A6        2.13544  -0.00465   0.00000  -0.01820  -0.01822   2.11723
    A7        2.14292  -0.00049   0.00000  -0.00301  -0.00301   2.13991
    A8        2.11677  -0.00105   0.00000  -0.00635  -0.00635   2.11042
    A9        2.02271   0.00154   0.00000   0.00932   0.00932   2.03203
   A10        2.14329  -0.00167   0.00000  -0.00387  -0.00397   2.13932
   A11        2.14935  -0.00191   0.00000  -0.00486  -0.00496   2.14439
   A12        1.98802   0.00351   0.00000   0.00610   0.00561   1.99364
   A13        1.94516  -0.00091   0.00000  -0.01030  -0.01027   1.93489
   A14        1.94209  -0.00231   0.00000  -0.02367  -0.02350   1.91859
   A15        1.87511   0.00072   0.00000   0.00573   0.00570   1.88081
   A16        1.88315   0.00296   0.00000   0.02582   0.02570   1.90885
   A17        1.93346   0.00004   0.00000   0.00443   0.00438   1.93784
   A18        1.88443  -0.00056   0.00000  -0.00225  -0.00243   1.88199
   A19        1.93926   0.00052   0.00000   0.00680   0.00681   1.94607
   A20        1.90700  -0.00038   0.00000  -0.00713  -0.00722   1.89977
   A21        1.91757  -0.00284   0.00000  -0.02943  -0.02952   1.88805
   A22        1.90658   0.00036   0.00000   0.01202   0.01194   1.91852
   A23        1.91939   0.00239   0.00000   0.02078   0.02089   1.94028
   A24        1.87276  -0.00006   0.00000  -0.00334  -0.00380   1.86896
   A25        1.92671  -0.00339   0.00000  -0.00596  -0.00623   1.92048
   A26        1.91754   0.00153   0.00000   0.01017   0.01023   1.92778
   A27        1.91491   0.00089   0.00000  -0.00148  -0.00142   1.91349
   A28        1.91761   0.00122   0.00000   0.00850   0.00855   1.92616
   A29        1.91624   0.00093   0.00000  -0.00294  -0.00286   1.91338
   A30        1.87000  -0.00108   0.00000  -0.00829  -0.00831   1.86169
   A31        1.94347  -0.00001   0.00000  -0.00114  -0.00112   1.94235
   A32        1.90677   0.00051   0.00000   0.01343   0.01330   1.92007
   A33        1.91586   0.00244   0.00000   0.02159   0.02156   1.93742
   A34        1.90827  -0.00014   0.00000  -0.00227  -0.00230   1.90596
   A35        1.91579  -0.00264   0.00000  -0.02910  -0.02908   1.88671
   A36        1.87227  -0.00016   0.00000  -0.00243  -0.00282   1.86944
   A37        1.95374  -0.00039   0.00000  -0.01014  -0.01017   1.94357
   A38        1.94656  -0.00250   0.00000  -0.02336  -0.02318   1.92339
   A39        1.86824   0.00020   0.00000   0.00182   0.00182   1.87006
   A40        1.89623   0.00264   0.00000   0.02548   0.02534   1.92156
   A41        1.92573   0.00058   0.00000   0.00951   0.00948   1.93521
   A42        1.87166  -0.00060   0.00000  -0.00338  -0.00367   1.86798
    D1        0.01253   0.00073   0.00000   0.02500   0.02495   0.03748
    D2       -3.13906   0.00094   0.00000   0.03322   0.03326  -3.10579
    D3       -3.08000   0.00094   0.00000   0.03218   0.03214  -3.04786
    D4        0.05160   0.00114   0.00000   0.04040   0.04045   0.09205
    D5       -3.08253   0.00041   0.00000   0.01470   0.01474  -3.06779
    D6        0.01487   0.00038   0.00000   0.01393   0.01398   0.02885
    D7        0.06908   0.00020   0.00000   0.00646   0.00641   0.07549
    D8       -3.11671   0.00018   0.00000   0.00569   0.00565  -3.11106
    D9        0.07672  -0.00047   0.00000  -0.02289  -0.02275   0.05397
   D10       -2.98380   0.00031   0.00000   0.01885   0.01888  -2.96492
   D11       -3.07555  -0.00018   0.00000  -0.01379  -0.01382  -3.08937
   D12        0.14711   0.00060   0.00000   0.02795   0.02781   0.17492
   D13        2.29477   0.00070   0.00000   0.01031   0.01043   2.30520
   D14        0.19194  -0.00087   0.00000   0.00069   0.00066   0.19261
   D15       -1.86735   0.00067   0.00000   0.01325   0.01326  -1.85409
   D16       -0.92105  -0.00022   0.00000  -0.02834  -0.02831  -0.94937
   D17       -3.02388  -0.00179   0.00000  -0.03796  -0.03807  -3.06196
   D18        1.20001  -0.00025   0.00000  -0.02540  -0.02547   1.17453
   D19       -2.30820  -0.00022   0.00000   0.00181   0.00175  -2.30644
   D20       -0.17943   0.00112   0.00000   0.01069   0.01072  -0.16872
   D21        1.86276  -0.00084   0.00000  -0.00503  -0.00501   1.85776
   D22        0.90793   0.00069   0.00000   0.04056   0.04057   0.94849
   D23        3.03669   0.00203   0.00000   0.04944   0.04953   3.08622
   D24       -1.20430   0.00008   0.00000   0.03372   0.03381  -1.17049
   D25        0.95364   0.00005   0.00000  -0.00321  -0.00329   0.95035
   D26       -1.15128  -0.00048   0.00000  -0.01782  -0.01775  -1.16903
   D27        3.08169   0.00148   0.00000   0.00754   0.00739   3.08908
   D28        3.09074  -0.00141   0.00000  -0.02191  -0.02205   3.06869
   D29        0.98582  -0.00194   0.00000  -0.03652  -0.03652   0.94930
   D30       -1.06439   0.00001   0.00000  -0.01116  -0.01138  -1.07577
   D31       -1.13316  -0.00029   0.00000  -0.00659  -0.00659  -1.13975
   D32        3.04510  -0.00081   0.00000  -0.02121  -0.02105   3.02405
   D33        0.99489   0.00114   0.00000   0.00416   0.00409   0.99898
   D34       -0.98369  -0.00020   0.00000   0.02016   0.02010  -0.96359
   D35       -3.10123  -0.00052   0.00000   0.00676   0.00675  -3.09448
   D36        1.13042  -0.00064   0.00000   0.01170   0.01167   1.14209
   D37        1.12148  -0.00011   0.00000   0.02347   0.02339   1.14487
   D38       -0.99606  -0.00044   0.00000   0.01007   0.01004  -0.98602
   D39       -3.04759  -0.00055   0.00000   0.01501   0.01495  -3.03264
   D40       -3.11069   0.00142   0.00000   0.03864   0.03864  -3.07205
   D41        1.05496   0.00110   0.00000   0.02524   0.02529   1.08024
   D42       -0.99657   0.00098   0.00000   0.03018   0.03020  -0.96637
   D43        0.96822   0.00011   0.00000  -0.01230  -0.01226   0.95596
   D44       -1.14134  -0.00004   0.00000  -0.01765  -0.01755  -1.15889
   D45        3.09335  -0.00157   0.00000  -0.03508  -0.03514   3.05822
   D46        3.08572   0.00061   0.00000   0.00210   0.00209   3.08781
   D47        0.97616   0.00046   0.00000  -0.00325  -0.00320   0.97296
   D48       -1.07233  -0.00107   0.00000  -0.02068  -0.02078  -1.09312
   D49       -1.14510   0.00057   0.00000  -0.00470  -0.00468  -1.14978
   D50        3.02852   0.00042   0.00000  -0.01005  -0.00997   3.01855
   D51        0.98003  -0.00111   0.00000  -0.02748  -0.02756   0.95247
   D52       -0.92460  -0.00043   0.00000  -0.01702  -0.01690  -0.94151
   D53       -3.08195   0.00114   0.00000   0.00145   0.00166  -3.08028
   D54        1.15401  -0.00003   0.00000  -0.01496  -0.01495   1.13906
   D55        1.18408   0.00011   0.00000  -0.00247  -0.00250   1.18158
   D56       -0.97327   0.00167   0.00000   0.01600   0.01607  -0.95720
   D57       -3.02049   0.00050   0.00000  -0.00040  -0.00054  -3.02104
   D58       -3.04978  -0.00170   0.00000  -0.02368  -0.02361  -3.07340
   D59        1.07606  -0.00014   0.00000  -0.00521  -0.00505   1.07101
   D60       -0.97117  -0.00131   0.00000  -0.02161  -0.02166  -0.99282
         Item               Value     Threshold  Converged?
 Maximum Force            0.034585     0.000450     NO 
 RMS     Force            0.003617     0.000300     NO 
 Maximum Displacement     0.125668     0.001800     NO 
 RMS     Displacement     0.035626     0.001200     NO 
 Predicted change in Energy=-2.565572D-03
 GradGradGradGradGradGradGradGradGradGradGradGradGradGradGradGradGradGrad

                          Input orientation:                          
 ---------------------------------------------------------------------
 Center     Atomic      Atomic             Coordinates (Angstroms)
 Number     Number       Type             X           Y           Z
 ---------------------------------------------------------------------
      1          7           0        2.582033   -0.993238   -0.691118
      2          6           0        2.596221    0.104371    0.085452
      3          7           0        1.870273    0.076303    1.216749
      4          1           0        1.776753    0.876104    1.821552
      5          1           0        1.355325   -0.750305    1.482186
      6          7           0        3.308104    1.181648   -0.255812
      7          6           0        4.066440    1.267615   -1.527477
      8          6           0        3.785373    2.593755   -2.241816
      9          6           0        4.058787    3.794274   -1.326787
     10          6           0        3.251467    3.660687   -0.029148
     11          6           0        3.530452    2.324236    0.664047
     12          1           0        2.019114   -1.794792   -0.446849
     13          1           0        3.158828   -1.083313   -1.511883
     14          1           0        3.790987    0.438876   -2.181446
     15          1           0        5.133013    1.167166   -1.288741
     16          1           0        2.737908    2.604638   -2.570261
     17          1           0        4.405694    2.634316   -3.143446
     18          1           0        3.807282    4.729510   -1.837295
     19          1           0        5.131242    3.842321   -1.091109
     20          1           0        2.177771    3.738369   -0.244953
     21          1           0        3.498387    4.465466    0.671467
     22          1           0        2.901752    2.222856    1.549351
     23          1           0        4.573371    2.269165    1.002368
 ---------------------------------------------------------------------
                    Distance matrix (angstroms):
                    1          2          3          4          5
     1  N    0.000000
     2  C    1.344622   0.000000
     3  N    2.300103   1.344477   0.000000
     4  H    3.233640   2.069092   1.007082   0.000000
     5  H    2.507404   2.054546   1.009411   1.714053   0.000000
     6  N    2.333838   1.335576   2.336146   2.598814   3.250604
     7  C    2.830975   2.473099   3.711219   4.075775   4.525507
     8  C    4.088913   3.609334   4.686880   4.847251   5.563817
     9  C    5.050262   4.212945   5.008240   4.861628   5.987673
    10  C    4.748196   3.617991   4.038286   3.654281   5.033521
    11  C    3.706967   2.476966   2.848662   2.551934   3.854002
    12  H    1.009472   2.055046   2.508128   3.512558   2.291886
    13  H    1.007204   2.068477   3.232725   4.106243   3.511120
    14  H    2.394493   2.584219   3.920246   4.502477   4.557280
    15  H    3.395880   3.074615   4.255929   4.585098   5.062179
    16  H    4.062042   3.650236   4.635376   4.816604   5.439623
    17  H    4.743291   4.483370   5.655359   5.886752   6.492834
    18  H    5.963624   5.153207   5.893346   5.688493   6.859987
    19  H    5.480975   4.667215   5.490265   5.341782   6.478550
    20  H    4.769758   3.672902   3.954978   3.553001   4.879305
    21  H    5.700333   4.491822   4.713049   4.143699   5.696863
    22  H    3.932580   2.593131   2.404633   1.775798   3.351960
    23  H    4.180502   3.071838   3.487311   3.229977   4.438834
                    6          7          8          9         10
     6  N    0.000000
     7  C    1.483103   0.000000
     8  C    2.483152   1.532294   0.000000
     9  C    2.921699   2.534628   1.534041   0.000000
    10  C    2.490024   2.938700   2.513822   1.534104   0.000000
    11  C    1.483606   2.491286   2.929448   2.530527   1.531161
    12  H    3.249182   3.838963   5.059735   6.014334   5.608512
    13  H    2.594233   2.520093   3.800814   4.963370   4.971179
    14  H    2.119659   1.091036   2.155732   3.472875   3.911973
    15  H    2.097009   1.097572   2.181661   2.838505   3.368150
    16  H    2.776094   2.154071   1.097806   2.169374   2.799328
    17  H    3.413705   2.143437   1.095162   2.183140   3.476281
    18  H    3.916324   3.485379   2.173837   1.094778   2.172720
    19  H    3.331777   2.820165   2.166659   1.099096   2.166635
    20  H    2.795459   3.364010   2.807488   2.170647   1.097920
    21  H    3.417531   3.922281   3.474606   2.181184   1.095217
    22  H    2.123170   3.425763   3.910409   3.475666   2.163635
    23  H    2.089644   2.767706   3.354256   2.831204   2.178943
                   11         12         13         14         15
    11  C    0.000000
    12  H    4.525994   0.000000
    13  H    4.060069   1.714481   0.000000
    14  H    3.423345   3.337309   1.779044   0.000000
    15  H    2.778559   4.379309   3.001976   1.768718   0.000000
    16  H    3.341781   4.937664   3.859834   2.439401   3.073296
    17  H    3.919082   5.708275   4.247051   2.474524   2.474158
    18  H    3.481191   6.906331   5.857926   4.304445   3.840413
    19  H    2.819163   6.471279   5.322531   3.816878   2.682446
    20  H    2.157730   5.539115   5.080964   4.152003   4.053891
    21  H    2.141483   6.529143   5.972543   4.943497   4.170516
    22  H    1.090553   4.572238   4.513091   4.229914   3.761352
    23  H    1.097804   5.014001   4.422838   3.754831   2.603225
                   16         17         18         19         20
    16  H    0.000000
    17  H    1.763783   0.000000
    18  H    2.489153   2.540465   0.000000
    19  H    3.073727   2.489535   1.759763   0.000000
    20  H    2.646915   3.818879   2.484597   3.074049   0.000000
    21  H    3.814422   4.327803   2.541461   2.482176   1.764234
    22  H    4.140508   4.945047   4.309603   3.816454   2.457734
    23  H    4.030527   4.165241   3.834564   2.677440   3.074617
                   21         22         23
    21  H    0.000000
    22  H    2.481119   0.000000
    23  H    2.467555   1.759444   0.000000
 Stoichiometry    C6H14N3(1+)
 Framework group  C1[X(C6H14N3)]
 Deg. of freedom    63
 Full point group                 C1      NOp   1
 Largest Abelian subgroup         C1      NOp   1
 Largest concise Abelian subgroup C1      NOp   1
                         Standard orientation:                         
 ---------------------------------------------------------------------
 Center     Atomic      Atomic             Coordinates (Angstroms)
 Number     Number       Type             X           Y           Z
 ---------------------------------------------------------------------
      1          7           0       -2.372291   -1.125655   -0.094570
      2          6           0       -1.658573    0.012264   -0.033284
      3          7           0       -2.309653    1.168276   -0.250887
      4          1           0       -1.839173    2.058058   -0.284779
      5          1           0       -3.303323    1.178466   -0.428163
      6          7           0       -0.350605   -0.007526    0.236144
      7          6           0        0.408439   -1.268804    0.416769
      8          6           0        1.703156   -1.248584   -0.402514
      9          6           0        2.554043   -0.013834   -0.078991
     10          6           0        1.727410    1.262285   -0.283137
     11          6           0        0.429807    1.219880    0.528579
     12          1           0       -3.354158   -1.110690   -0.328546
     13          1           0       -1.978879   -2.024486    0.133005
     14          1           0       -0.202486   -2.118062    0.107108
     15          1           0        0.621645   -1.380869    1.487586
     16          1           0        1.447492   -1.257439   -1.470097
     17          1           0        2.252833   -2.172946   -0.195654
     18          1           0        3.450378    0.008381   -0.707187
     19          1           0        2.900438   -0.066649    0.962755
     20          1           0        1.484256    1.386337   -1.346583
     21          1           0        2.292009    2.149107    0.023907
     22          1           0       -0.170813    2.106291    0.321610
     23          1           0        0.641924    1.219596    1.605695
 ---------------------------------------------------------------------
 Rotational constants (GHZ):      2.9849905      1.1806983      0.9101595
 Standard basis: 6-31G(d) (6D, 7F)
 There are   163 symmetry adapted basis functions of A   symmetry.
 Integral buffers will be    131072 words long.
 Raffenetti 2 integral format.
 Two-electron integral symmetry is turned on.
   163 basis functions,   308 primitive gaussians,   163 cartesian basis functions
    35 alpha electrons       35 beta electrons
       nuclear repulsion energy       495.6927215227 Hartrees.
 NAtoms=   23 NActive=   23 NUniq=   23 SFac= 1.00D+00 NAtFMM=   60 NAOKFM=F Big=F
 One-electron integrals computed using PRISM.
 NBasis=   163 RedAO= T  NBF=   163
 NBsUse=   163 1.00D-06 NBFU=   163
 Initial guess read from the read-write file.
 B after Tr=     0.000000    0.000000    0.000000
         Rot=    1.000000    0.000000    0.000000    0.000000 Ang=   0.00 deg.
 Initial guess orbital symmetries:
       Occupied  (A) (A) (A) (A) (A) (A) (A) (A) (A) (A) (A) (A)
                 (A) (A) (A) (A) (A) (A) (A) (A) (A) (A) (A) (A)
                 (A) (A) (A) (A) (A) (A) (A) (A) (A) (A) (A)
       Virtual   (A) (A) (A) (A) (A) (A) (A) (A) (A) (A) (A) (A)
                 (A) (A) (A) (A) (A) (A) (A) (A) (A) (A) (A) (A)
                 (A) (A) (A) (A) (A) (A) (A) (A) (A) (A) (A) (A)
                 (A) (A) (A) (A) (A) (A) (A) (A) (A) (A) (A) (A)
                 (A) (A) (A) (A) (A) (A) (A) (A) (A) (A) (A) (A)
                 (A) (A) (A) (A) (A) (A) (A) (A) (A) (A) (A) (A)
                 (A) (A) (A) (A) (A) (A) (A) (A) (A) (A) (A) (A)
                 (A) (A) (A) (A) (A) (A) (A) (A) (A) (A) (A) (A)
                 (A) (A) (A) (A) (A) (A) (A) (A) (A) (A) (A) (A)
                 (A) (A) (A) (A) (A) (A) (A) (A) (A) (A) (A) (A)
                 (A) (A) (A) (A) (A) (A) (A) (A)
 Harris functional with IExCor=  402 diagonalized for initial guess.
 ExpMin= 1.61D-01 ExpMax= 4.17D+03 ExpMxC= 6.27D+02 IAcc=3 IRadAn=         5 AccDes= 0.00D+00
 HarFok:  IExCor=  402 AccDes= 0.00D+00 IRadAn=         5 IDoV= 1
 ScaDFX=  1.000000  1.000000  1.000000  1.000000
 FoFCou: FMM=F IPFlag=           0 FMFlag=      100000 FMFlg1=           0
         NFxFlg=           0 DoJE=T BraDBF=F KetDBF=T FulRan=T
         Omega=  0.000000  0.000000  1.000000  0.000000  0.000000 ICntrl=     500 IOpCl=  0
         NMat0=    1 NMatS0=    1 NMatT0=    0 NMatD0=    1 NMtDS0=    0 NMtDT0=    0
         I1Cent=           4 NGrid=           0.
 Petite list used in FoFCou.
 Requested convergence on RMS density matrix=1.00D-08 within 128 cycles.
 Requested convergence on MAX density matrix=1.00D-06.
 Requested convergence on             energy=1.00D-06.
 No special actions if energy rises.
 Integral accuracy reduced to 1.0D-05 until final iterations.
 Initial convergence to 1.0D-05 achieved.  Increase integral accuracy.
 SCF Done:  E(RB3LYP) =  -401.126105611     A.U. after   11 cycles
             Convg  =    0.9103D-08             -V/T =  2.0099
 Calling FoFJK, ICntrl=      2127 FMM=F ISym2X=0 I1Cent= 0 IOpClX= 0 NMat=1 NMatS=1 NMatT=0.
 ***** Axes restored to original set *****
 -------------------------------------------------------------------
 Center     Atomic                   Forces (Hartrees/Bohr)
 Number     Number              X              Y              Z
 -------------------------------------------------------------------
      1        7          -0.003002594   -0.003776140    0.000430464
      2        6           0.003291389    0.003294971   -0.000857888
      3        7          -0.002220969   -0.003719285    0.001879515
      4        1          -0.000920039   -0.001009780   -0.001093331
      5        1           0.000339493   -0.000404368   -0.000008092
      6        7          -0.001462943   -0.000423231   -0.000397859
      7        6           0.000658053    0.000762243    0.000754333
      8        6          -0.000584714    0.001479704   -0.000357974
      9        6           0.000625822   -0.001007822    0.000489227
     10        6          -0.000211472    0.001007207   -0.000647618
     11        6           0.000522154    0.000604941   -0.000839637
     12        1          -0.000882138    0.000336188   -0.000155498
     13        1           0.000211397   -0.000906512    0.001997546
     14        1           0.000807142    0.002408872   -0.000543163
     15        1           0.000198133    0.000105544   -0.000352248
     16        1           0.000310240   -0.000125641   -0.000128722
     17        1           0.000345816   -0.000013319    0.000088368
     18        1          -0.000344835   -0.000535118    0.000028263
     19        1          -0.000151098    0.000156428   -0.000070140
     20        1           0.000263876   -0.000136119    0.000142125
     21        1           0.000099822    0.000068341    0.000105254
     22        1           0.002043984    0.001398633   -0.000421109
     23        1           0.000063481    0.000434262   -0.000041817
 -------------------------------------------------------------------
 Cartesian Forces:  Max     0.003776140 RMS     0.001220382

 GradGradGradGradGradGradGradGradGradGradGradGradGradGradGradGradGradGrad
 Berny optimization.
 Using GEDIIS/GDIIS optimizer.
 Internal  Forces:  Max     0.010399468 RMS     0.001612782
 Search for a local minimum.
 Step number   2 out of a maximum of  135
 All quantities printed in internal units (Hartrees-Bohrs-Radians)
 Mixed Optimization -- RFO/linear search
 Update second derivatives using D2CorX and points    1    2
 DE= -1.92D-03 DEPred=-2.57D-03 R= 7.47D-01
 SS=  1.41D+00  RLast= 2.06D-01 DXNew= 5.0454D-01 6.1715D-01
 Trust test= 7.47D-01 RLast= 2.06D-01 DXMaxT set to 5.05D-01
 ITU=  1  0
 Use linear search instead of GDIIS.
     Eigenvalues ---    0.00631   0.00670   0.00721   0.01061   0.02044
     Eigenvalues ---    0.02241   0.02270   0.02292   0.02390   0.02391
     Eigenvalues ---    0.02398   0.02775   0.04057   0.04293   0.04476
     Eigenvalues ---    0.04956   0.05019   0.05619   0.05878   0.06089
     Eigenvalues ---    0.06890   0.07930   0.07966   0.08165   0.08375
     Eigenvalues ---    0.09156   0.09382   0.09395   0.12034   0.12566
     Eigenvalues ---    0.15887   0.16000   0.16000   0.16024   0.16035
     Eigenvalues ---    0.16587   0.22651   0.24750   0.24998   0.27256
     Eigenvalues ---    0.28429   0.29069   0.29673   0.31192   0.32691
     Eigenvalues ---    0.33666   0.34014   0.34042   0.34087   0.34128
     Eigenvalues ---    0.34147   0.34170   0.34192   0.34219   0.34745
     Eigenvalues ---    0.34949   0.45742   0.45765   0.45910   0.46163
     Eigenvalues ---    0.54448   0.55554   0.60886
 RFO step:  Lambda=-1.05296522D-03 EMin= 6.30891352D-03
 Quartic linear search produced a step of -0.18918.
 Iteration  1 RMS(Cart)=  0.03218640 RMS(Int)=  0.00055709
 Iteration  2 RMS(Cart)=  0.00069365 RMS(Int)=  0.00005845
 Iteration  3 RMS(Cart)=  0.00000024 RMS(Int)=  0.00005845
 Variable       Old X    -DE/DX   Delta X   Delta X   Delta X     New X
                                 (Linear)    (Quad)   (Total)
    R1        2.54097   0.00227   0.00118   0.00095   0.00213   2.54309
    R2        1.90763   0.00019   0.00063  -0.00093  -0.00030   1.90733
    R3        1.90334  -0.00142   0.00064  -0.00376  -0.00312   1.90022
    R4        2.54069   0.00227   0.00095   0.00139   0.00234   2.54303
    R5        2.52387   0.00724   0.01277  -0.01400  -0.00122   2.52265
    R6        1.90311  -0.00137   0.00060  -0.00359  -0.00299   1.90012
    R7        1.90751   0.00016   0.00067  -0.00107  -0.00040   1.90711
    R8        2.80266   0.00271   0.00259   0.00042   0.00301   2.80567
    R9        2.80361   0.00302   0.00276   0.00017   0.00292   2.80653
   R10        2.89562   0.00053  -0.00270   0.00790   0.00521   2.90083
   R11        2.06176  -0.00171  -0.00009  -0.00377  -0.00386   2.05790
   R12        2.07411   0.00011  -0.00061   0.00147   0.00086   2.07497
   R13        2.89892  -0.00181  -0.00403   0.00501   0.00098   2.89989
   R14        2.07455  -0.00026  -0.00027  -0.00006  -0.00033   2.07422
   R15        2.06956   0.00012   0.00008   0.00013   0.00021   2.06976
   R16        2.89904  -0.00148  -0.00372   0.00448   0.00076   2.89980
   R17        2.06883  -0.00039   0.00028  -0.00147  -0.00119   2.06764
   R18        2.07699  -0.00016  -0.00080   0.00123   0.00043   2.07742
   R19        2.89347   0.00037  -0.00225   0.00444   0.00217   2.89565
   R20        2.07477  -0.00029  -0.00044   0.00019  -0.00025   2.07452
   R21        2.06966   0.00014   0.00015   0.00002   0.00017   2.06983
   R22        2.06085  -0.00165  -0.00006  -0.00370  -0.00375   2.05709
   R23        2.07455   0.00003  -0.00058   0.00121   0.00064   2.07519
    A1        2.11099  -0.00067   0.00131  -0.00630  -0.00505   2.10594
    A2        2.13837   0.00072   0.00071   0.00189   0.00254   2.14092
    A3        2.03255  -0.00007  -0.00197   0.00340   0.00138   2.03393
    A4        2.05243  -0.01040  -0.00697  -0.01930  -0.02628   2.02615
    A5        2.11353   0.00556   0.00352   0.01072   0.01424   2.12776
    A6        2.11723   0.00484   0.00345   0.00859   0.01203   2.12926
    A7        2.13991   0.00070   0.00057   0.00217   0.00271   2.14262
    A8        2.11042  -0.00065   0.00120  -0.00585  -0.00468   2.10574
    A9        2.03203  -0.00007  -0.00176   0.00312   0.00132   2.03335
   A10        2.13932   0.00239   0.00075   0.00995   0.01058   2.14989
   A11        2.14439   0.00179   0.00094   0.00742   0.00825   2.15264
   A12        1.99364  -0.00418  -0.00106  -0.02116  -0.02225   1.97138
   A13        1.93489   0.00165   0.00194   0.00176   0.00364   1.93853
   A14        1.91859   0.00035   0.00445  -0.00004   0.00439   1.92298
   A15        1.88081   0.00007  -0.00108   0.00404   0.00300   1.88380
   A16        1.90885  -0.00172  -0.00486  -0.00279  -0.00760   1.90125
   A17        1.93784  -0.00069  -0.00083  -0.00094  -0.00179   1.93605
   A18        1.88199   0.00034   0.00046  -0.00204  -0.00158   1.88042
   A19        1.94607  -0.00038  -0.00129   0.00571   0.00428   1.95035
   A20        1.89977  -0.00019   0.00137  -0.00300  -0.00160   1.89817
   A21        1.88805   0.00033   0.00558  -0.01403  -0.00839   1.87967
   A22        1.91852   0.00085  -0.00226   0.00715   0.00495   1.92347
   A23        1.94028  -0.00057  -0.00395   0.00503   0.00110   1.94138
   A24        1.86896  -0.00003   0.00072  -0.00159  -0.00083   1.86813
   A25        1.92048   0.00121   0.00118  -0.00094   0.00025   1.92074
   A26        1.92778  -0.00037  -0.00194   0.00087  -0.00103   1.92675
   A27        1.91349  -0.00046   0.00027   0.00086   0.00109   1.91458
   A28        1.92616  -0.00015  -0.00162   0.00212   0.00050   1.92666
   A29        1.91338  -0.00057   0.00054  -0.00060  -0.00006   1.91332
   A30        1.86169   0.00028   0.00157  -0.00234  -0.00077   1.86092
   A31        1.94235  -0.00052   0.00021  -0.00426  -0.00415   1.93820
   A32        1.92007   0.00094  -0.00252   0.00946   0.00701   1.92708
   A33        1.93742  -0.00057  -0.00408   0.00670   0.00260   1.94002
   A34        1.90596  -0.00025   0.00044  -0.00006   0.00038   1.90635
   A35        1.88671   0.00046   0.00550  -0.01205  -0.00649   1.88022
   A36        1.86944  -0.00006   0.00053  -0.00003   0.00054   1.86998
   A37        1.94357   0.00169   0.00192  -0.00003   0.00171   1.94529
   A38        1.92339   0.00011   0.00438   0.00264   0.00700   1.93039
   A39        1.87006   0.00004  -0.00034  -0.00055  -0.00082   1.86925
   A40        1.92156  -0.00107  -0.00479   0.00751   0.00277   1.92434
   A41        1.93521  -0.00076  -0.00179  -0.00319  -0.00494   1.93027
   A42        1.86798  -0.00004   0.00069  -0.00688  -0.00615   1.86183
    D1        0.03748   0.00064  -0.00472   0.03201   0.02733   0.06481
    D2       -3.10579   0.00080  -0.00629   0.04140   0.03508  -3.07072
    D3       -3.04786   0.00122  -0.00608   0.05419   0.04814  -2.99972
    D4        0.09205   0.00139  -0.00765   0.06358   0.05589   0.14794
    D5       -3.06779   0.00089  -0.00279   0.03548   0.03265  -3.03514
    D6        0.02885   0.00042  -0.00264   0.01996   0.01727   0.04612
    D7        0.07549   0.00072  -0.00121   0.02606   0.02489   0.10038
    D8       -3.11106   0.00025  -0.00107   0.01054   0.00951  -3.10155
    D9        0.05397   0.00076   0.00430   0.01146   0.01552   0.06949
   D10       -2.96492   0.00101  -0.00357   0.05251   0.04904  -2.91588
   D11       -3.08937   0.00091   0.00261   0.02117   0.02369  -3.06568
   D12        0.17492   0.00117  -0.00526   0.06223   0.05721   0.23213
   D13        2.30520  -0.00008  -0.00197   0.01369   0.01167   2.31687
   D14        0.19261   0.00076  -0.00013   0.01607   0.01590   0.20851
   D15       -1.85409   0.00013  -0.00251   0.01621   0.01364  -1.84044
   D16       -0.94937   0.00003   0.00536  -0.02246  -0.01699  -0.96636
   D17       -3.06196   0.00087   0.00720  -0.02008  -0.01276  -3.07472
   D18        1.17453   0.00023   0.00482  -0.01994  -0.01502   1.15952
   D19       -2.30644   0.00025  -0.00033   0.00309   0.00284  -2.30360
   D20       -0.16872   0.00012  -0.00203   0.01448   0.01252  -0.15620
   D21        1.85776   0.00015   0.00095   0.00738   0.00842   1.86617
   D22        0.94849   0.00010  -0.00767   0.03917   0.03139   0.97988
   D23        3.08622  -0.00003  -0.00937   0.05056   0.04107   3.12729
   D24       -1.17049   0.00000  -0.00640   0.04347   0.03696  -1.13353
   D25        0.95035   0.00100   0.00062  -0.00068  -0.00003   0.95033
   D26       -1.16903   0.00031   0.00336  -0.01128  -0.00791  -1.17695
   D27        3.08908   0.00027  -0.00140  -0.00022  -0.00161   3.08748
   D28        3.06869   0.00136   0.00417  -0.00145   0.00276   3.07145
   D29        0.94930   0.00068   0.00691  -0.01204  -0.00513   0.94418
   D30       -1.07577   0.00064   0.00215  -0.00099   0.00118  -1.07459
   D31       -1.13975   0.00027   0.00125  -0.00630  -0.00503  -1.14478
   D32        3.02405  -0.00042   0.00398  -0.01690  -0.01291   3.01114
   D33        0.99898  -0.00046  -0.00077  -0.00584  -0.00661   0.99237
   D34       -0.96359   0.00034  -0.00380   0.02167   0.01788  -0.94571
   D35       -3.09448  -0.00004  -0.00128   0.01906   0.01776  -3.07672
   D36        1.14209   0.00011  -0.00221   0.02088   0.01866   1.16074
   D37        1.14487   0.00042  -0.00443   0.02647   0.02207   1.16694
   D38       -0.98602   0.00004  -0.00190   0.02386   0.02195  -0.96407
   D39       -3.03264   0.00019  -0.00283   0.02568   0.02285  -3.00979
   D40       -3.07205   0.00057  -0.00731   0.03217   0.02489  -3.04716
   D41        1.08024   0.00019  -0.00478   0.02956   0.02477   1.10502
   D42       -0.96637   0.00034  -0.00571   0.03138   0.02567  -0.94070
   D43        0.95596  -0.00031   0.00232  -0.00963  -0.00740   0.94856
   D44       -1.15889  -0.00030   0.00332  -0.01314  -0.00987  -1.16876
   D45        3.05822  -0.00047   0.00665  -0.02324  -0.01665   3.04157
   D46        3.08781  -0.00007  -0.00040  -0.00776  -0.00819   3.07962
   D47        0.97296  -0.00005   0.00060  -0.01126  -0.01066   0.96230
   D48       -1.09312  -0.00022   0.00393  -0.02137  -0.01744  -1.11056
   D49       -1.14978  -0.00015   0.00089  -0.00972  -0.00887  -1.15866
   D50        3.01855  -0.00013   0.00189  -0.01322  -0.01134   3.00721
   D51        0.95247  -0.00030   0.00521  -0.02333  -0.01812   0.93435
   D52       -0.94151  -0.00104   0.00320  -0.02770  -0.02454  -0.96604
   D53       -3.08028  -0.00159  -0.00031  -0.03627  -0.03661  -3.11690
   D54        1.13906  -0.00039   0.00283  -0.03051  -0.02770   1.11136
   D55        1.18158  -0.00037   0.00047  -0.01863  -0.01819   1.16339
   D56       -0.95720  -0.00091  -0.00304  -0.02721  -0.03026  -0.98746
   D57       -3.02104   0.00029   0.00010  -0.02145  -0.02135  -3.04239
   D58       -3.07340  -0.00031   0.00447  -0.02532  -0.02089  -3.09429
   D59        1.07101  -0.00086   0.00095  -0.03390  -0.03297   1.03804
   D60       -0.99282   0.00034   0.00410  -0.02814  -0.02406  -1.01688
         Item               Value     Threshold  Converged?
 Maximum Force            0.010399     0.000450     NO 
 RMS     Force            0.001613     0.000300     NO 
 Maximum Displacement     0.148951     0.001800     NO 
 RMS     Displacement     0.032163     0.001200     NO 
 Predicted change in Energy=-6.282551D-04
 GradGradGradGradGradGradGradGradGradGradGradGradGradGradGradGradGradGrad

                          Input orientation:                          
 ---------------------------------------------------------------------
 Center     Atomic      Atomic             Coordinates (Angstroms)
 Number     Number       Type             X           Y           Z
 ---------------------------------------------------------------------
      1          7           0        2.586616   -1.016341   -0.662816
      2          6           0        2.591664    0.102558    0.084897
      3          7           0        1.838671    0.072700    1.199823
      4          1           0        1.697931    0.879510    1.783160
      5          1           0        1.340786   -0.765037    1.462110
      6          7           0        3.297014    1.181008   -0.263623
      7          6           0        4.061061    1.276828   -1.533019
      8          6           0        3.784746    2.608824   -2.244235
      9          6           0        4.052730    3.809466   -1.326896
     10          6           0        3.257826    3.662725   -0.022556
     11          6           0        3.553552    2.320117    0.654146
     12          1           0        1.999408   -1.798767   -0.414397
     13          1           0        3.201671   -1.147554   -1.447435
     14          1           0        3.789200    0.458254   -2.197803
     15          1           0        5.127821    1.173661   -1.294177
     16          1           0        2.741304    2.617315   -2.584748
     17          1           0        4.414733    2.645212   -3.139452
     18          1           0        3.786617    4.742547   -1.832564
     19          1           0        5.126675    3.869962   -1.099971
     20          1           0        2.180610    3.738480   -0.220055
     21          1           0        3.512582    4.457182    0.687119
     22          1           0        2.964792    2.218956    1.564147
     23          1           0        4.608564    2.262422    0.953374
 ---------------------------------------------------------------------
                    Distance matrix (angstroms):
                    1          2          3          4          5
     1  N    0.000000
     2  C    1.345747   0.000000
     3  N    2.283606   1.345716   0.000000
     4  H    3.219753   2.070389   1.005501   0.000000
     5  H    2.475996   2.052836   1.009202   1.713232   0.000000
     6  N    2.343580   1.334930   2.344522   2.614821   3.254547
     7  C    2.861795   2.481066   3.722549   4.091368   4.532098
     8  C    4.132581   3.623488   4.699007   4.854403   5.576098
     9  C    5.087132   4.227179   5.024917   4.878746   6.004938
    10  C    4.770128   3.623549   4.049258   3.666083   5.048203
    11  C    3.715011   2.483312   2.879143   2.606405   3.881664
    12  H    1.009314   2.053070   2.476677   3.477544   2.241352
    13  H    1.005553   2.069524   3.217882   4.099630   3.474862
    14  H    2.444755   2.602178   3.936633   4.516517   4.570135
    15  H    3.413568   3.079155   4.272079   4.617431   5.069250
    16  H    4.113539   3.670612   4.648955   4.815310   5.456997
    17  H    4.783587   4.492782   5.664205   5.893286   6.500255
    18  H    5.997758   5.160820   5.898927   5.688508   6.868075
    19  H    5.524396   4.692922   5.524420   5.386234   6.510025
    20  H    4.792620   3.671769   3.946001   3.524140   4.880231
    21  H    5.713073   4.491493   4.721073   4.158606   5.708668
    22  H    3.945824   2.608936   2.450978   1.856614   3.398826
    23  H    4.177395   3.080121   3.539481   3.327577   4.483603
                    6          7          8          9         10
     6  N    0.000000
     7  C    1.484694   0.000000
     8  C    2.489852   1.535053   0.000000
     9  C    2.934356   2.541026   1.534558   0.000000
    10  C    2.493706   2.935846   2.514798   1.534506   0.000000
    11  C    1.485153   2.475825   2.921885   2.528214   1.532311
    12  H    3.253548   3.867947   5.095350   6.041611   5.618278
    13  H    2.613944   2.573617   3.883972   5.030992   5.017192
    14  H    2.122657   1.088995   2.151075   3.472542   3.909309
    15  H    2.100940   1.098029   2.183152   2.846816   3.362937
    16  H    2.785572   2.155178   1.097631   2.173305   2.815050
    17  H    3.415199   2.139669   1.095272   2.184467   3.476897
    18  H    3.922480   3.489449   2.173074   1.094146   2.172962
    19  H    3.358214   2.836794   2.168082   1.099323   2.167110
    20  H    2.790864   3.364476   2.818985   2.175998   1.097788
    21  H    3.418142   3.917205   3.476110   2.183473   1.095309
    22  H    2.128015   3.417873   3.915111   3.474401   2.165171
    23  H    2.090621   2.730074   3.320146   2.811037   2.176644
                   11         12         13         14         15
    11  C    0.000000
    12  H    4.530160   0.000000
    13  H    4.070037   1.713675   0.000000
    14  H    3.414041   3.387925   1.867314   0.000000
    15  H    2.754749   4.404124   3.020195   1.766425   0.000000
    16  H    3.352388   4.976204   3.959754   2.430916   3.073300
    17  H    3.903679   5.745317   4.326605   2.461864   2.465563
    18  H    3.479398   6.927777   5.931591   4.299834   3.850408
    19  H    2.820223   6.510321   5.385335   3.825418   2.703286
    20  H    2.158924   5.543619   5.140268   4.154387   4.051924
    21  H    2.137713   6.529926   6.005502   4.938696   4.161255
    22  H    1.088566   4.581342   4.523177   4.234618   3.733812
    23  H    1.098142   5.017145   4.401268   3.722404   2.550786
                   16         17         18         19         20
    16  H    0.000000
    17  H    1.763190   0.000000
    18  H    2.484969   2.549765   0.000000
    19  H    3.076309   2.483216   1.758935   0.000000
    20  H    2.676408   3.835286   2.487487   3.077472   0.000000
    21  H    3.832114   4.328945   2.550555   2.478672   1.764553
    22  H    4.173963   4.940432   4.310633   3.807503   2.471290
    23  H    4.016330   4.115255   3.819433   2.658730   3.074190
                   21         22         23
    21  H    0.000000
    22  H    2.465545   0.000000
    23  H    2.467598   1.754115   0.000000
 Stoichiometry    C6H14N3(1+)
 Framework group  C1[X(C6H14N3)]
 Deg. of freedom    63
 Full point group                 C1      NOp   1
 Largest Abelian subgroup         C1      NOp   1
 Largest concise Abelian subgroup C1      NOp   1
                         Standard orientation:                         
 ---------------------------------------------------------------------
 Center     Atomic      Atomic             Coordinates (Angstroms)
 Number     Number       Type             X           Y           Z
 ---------------------------------------------------------------------
      1          7           0       -2.401345   -1.108554   -0.074955
      2          6           0       -1.661155    0.014536   -0.032246
      3          7           0       -2.316812    1.164934   -0.272351
      4          1           0       -1.848838    2.051144   -0.353980
      5          1           0       -3.313387    1.165565   -0.431490
      6          7           0       -0.351758   -0.012704    0.226164
      7          6           0        0.415688   -1.271417    0.402195
      8          6           0        1.714999   -1.244398   -0.414780
      9          6           0        2.565569   -0.009250   -0.089494
     10          6           0        1.731181    1.266087   -0.268436
     11          6           0        0.440665    1.199559    0.555045
     12          1           0       -3.376779   -1.072669   -0.331770
     13          1           0       -2.043005   -2.005668    0.204180
     14          1           0       -0.183231   -2.123974    0.085412
     15          1           0        0.628009   -1.391040    1.472839
     16          1           0        1.460947   -1.259289   -1.482501
     17          1           0        2.261374   -2.169505   -0.202008
     18          1           0        3.452317    0.022417   -0.729675
     19          1           0        2.927747   -0.071174    0.946607
     20          1           0        1.477716    1.412514   -1.326478
     21          1           0        2.288326    2.151683    0.055618
     22          1           0       -0.152577    2.098883    0.399303
     23          1           0        0.669091    1.154678    1.628228
 ---------------------------------------------------------------------
 Rotational constants (GHZ):      3.0028123      1.1663847      0.9046557
 Standard basis: 6-31G(d) (6D, 7F)
 There are   163 symmetry adapted basis functions of A   symmetry.
 Integral buffers will be    131072 words long.
 Raffenetti 2 integral format.
 Two-electron integral symmetry is turned on.
   163 basis functions,   308 primitive gaussians,   163 cartesian basis functions
    35 alpha electrons       35 beta electrons
       nuclear repulsion energy       494.8726039455 Hartrees.
 NAtoms=   23 NActive=   23 NUniq=   23 SFac= 1.00D+00 NAtFMM=   60 NAOKFM=F Big=F
 One-electron integrals computed using PRISM.
 NBasis=   163 RedAO= T  NBF=   163
 NBsUse=   163 1.00D-06 NBFU=   163
 Initial guess read from the read-write file.
 B after Tr=     0.000000    0.000000    0.000000
         Rot=    1.000000    0.000000    0.000000    0.000000 Ang=   0.00 deg.
 Initial guess orbital symmetries:
       Occupied  (A) (A) (A) (A) (A) (A) (A) (A) (A) (A) (A) (A)
                 (A) (A) (A) (A) (A) (A) (A) (A) (A) (A) (A) (A)
                 (A) (A) (A) (A) (A) (A) (A) (A) (A) (A) (A)
       Virtual   (A) (A) (A) (A) (A) (A) (A) (A) (A) (A) (A) (A)
                 (A) (A) (A) (A) (A) (A) (A) (A) (A) (A) (A) (A)
                 (A) (A) (A) (A) (A) (A) (A) (A) (A) (A) (A) (A)
                 (A) (A) (A) (A) (A) (A) (A) (A) (A) (A) (A) (A)
                 (A) (A) (A) (A) (A) (A) (A) (A) (A) (A) (A) (A)
                 (A) (A) (A) (A) (A) (A) (A) (A) (A) (A) (A) (A)
                 (A) (A) (A) (A) (A) (A) (A) (A) (A) (A) (A) (A)
                 (A) (A) (A) (A) (A) (A) (A) (A) (A) (A) (A) (A)
                 (A) (A) (A) (A) (A) (A) (A) (A) (A) (A) (A) (A)
                 (A) (A) (A) (A) (A) (A) (A) (A) (A) (A) (A) (A)
                 (A) (A) (A) (A) (A) (A) (A) (A)
 Harris functional with IExCor=  402 diagonalized for initial guess.
 ExpMin= 1.61D-01 ExpMax= 4.17D+03 ExpMxC= 6.27D+02 IAcc=3 IRadAn=         5 AccDes= 0.00D+00
 HarFok:  IExCor=  402 AccDes= 0.00D+00 IRadAn=         5 IDoV= 1
 ScaDFX=  1.000000  1.000000  1.000000  1.000000
 FoFCou: FMM=F IPFlag=           0 FMFlag=      100000 FMFlg1=           0
         NFxFlg=           0 DoJE=T BraDBF=F KetDBF=T FulRan=T
         Omega=  0.000000  0.000000  1.000000  0.000000  0.000000 ICntrl=     500 IOpCl=  0
         NMat0=    1 NMatS0=    1 NMatT0=    0 NMatD0=    1 NMtDS0=    0 NMtDT0=    0
         I1Cent=           4 NGrid=           0.
 Petite list used in FoFCou.
 Requested convergence on RMS density matrix=1.00D-08 within 128 cycles.
 Requested convergence on MAX density matrix=1.00D-06.
 Requested convergence on             energy=1.00D-06.
 No special actions if energy rises.
 Integral accuracy reduced to 1.0D-05 until final iterations.
 Initial convergence to 1.0D-05 achieved.  Increase integral accuracy.
 SCF Done:  E(RB3LYP) =  -401.126866767     A.U. after   10 cycles
             Convg  =    0.9889D-08             -V/T =  2.0100
 Calling FoFJK, ICntrl=      2127 FMM=F ISym2X=0 I1Cent= 0 IOpClX= 0 NMat=1 NMatS=1 NMatT=0.
 ***** Axes restored to original set *****
 -------------------------------------------------------------------
 Center     Atomic                   Forces (Hartrees/Bohr)
 Number     Number              X              Y              Z
 -------------------------------------------------------------------
      1        7          -0.000833106   -0.000805211   -0.001303818
      2        6           0.000055792   -0.000315583    0.000043335
      3        7          -0.000215736   -0.000374867    0.001722986
      4        1          -0.001089165    0.001210020   -0.000238312
      5        1           0.000515649   -0.000257050    0.000603212
      6        7           0.001081578    0.000700903   -0.000328919
      7        6           0.000270261    0.000124704   -0.000001334
      8        6          -0.000204509    0.000313208    0.000499875
      9        6           0.000085194   -0.001200006    0.000395654
     10        6           0.000449543   -0.000240969    0.000175821
     11        6          -0.000224291    0.000837815   -0.000303589
     12        1          -0.000714337    0.000146590   -0.000672776
     13        1           0.001646879   -0.000498033   -0.000005314
     14        1          -0.000632952   -0.000312176   -0.000591007
     15        1          -0.000232535    0.000264623    0.000221423
     16        1           0.000215325    0.000172467    0.000189270
     17        1           0.000195562    0.000405430    0.000015929
     18        1          -0.000373581   -0.000136409   -0.000218184
     19        1          -0.000431636   -0.000093002    0.000026749
     20        1           0.000329518   -0.000039358   -0.000245569
     21        1           0.000077105    0.000471901   -0.000334842
     22        1           0.000045789   -0.000384066    0.000786365
     23        1          -0.000016348    0.000009072   -0.000436954
 -------------------------------------------------------------------
 Cartesian Forces:  Max     0.001722986 RMS     0.000562661

 GradGradGradGradGradGradGradGradGradGradGradGradGradGradGradGradGradGrad
 Berny optimization.
 Using GEDIIS/GDIIS optimizer.
 Internal  Forces:  Max     0.002157805 RMS     0.000518761
 Search for a local minimum.
[...]
 0.00018083,0.00056353,-0.00043493,0.00076984,0.00091173,-0.00019682,0.
 00000962,0.00025781,-0.00119729,-0.00145831,0.00221306,0.06818358,0.22
 705044,-0.00036144,0.00146443,0.00218837,-0.00223561,-0.00602107,-0.00
 165265,0.00033994,0.00053236,0.00020245,-0.00019938,-0.00004331,0.0000
 1541,-0.00004325,0.00001134,-0.00011397,-0.00662306,-0.02199820,-0.023
 79693,-0.04348743,-0.11673912,-0.14119088,0.00451157,0.01191809,0.0112
 1061,-0.00123305,0.00252876,-0.00167354,-0.00003619,0.00025906,-0.0003
 1494,0.00382064,0.00301744,-0.00342263,0.00007951,0.00013151,0.0006732
 9,0.00008346,0.00274726,-0.00148306,0.04712979,0.12717505,0.15999353,-
 0.00016871,-0.00081985,-0.00030206,-0.00000799,0.00471175,0.00019243,-
 0.00047996,-0.00105932,0.00079480,-0.00004098,-0.00009955,-0.00020376,
 0.00007197,0.00017297,0.00022657,-0.01571707,-0.00500299,0.00866187,-0
 .29906642,0.01663314,-0.04636900,-0.00689064,0.00098279,-0.00316703,0.
 00044084,-0.00059082,0.00042568,0.00006992,0.00017484,0.00018788,-0.00
 021646,-0.00067338,-0.00115221,-0.00000999,0.00002241,-0.00013669,-0.0
 0054476,-0.00006897,0.00002553,-0.00663410,0.00039740,-0.00203596,0.32
 624258,0.00027718,0.00057528,0.00041860,-0.00093111,0.00040615,0.00027
 105,-0.00015555,-0.00056748,0.00040137,0.00002031,-0.00001541,-0.00007
 157,-0.00000481,0.00010397,0.00015385,-0.00524683,0.00053345,-0.000003
 29,0.01735809,-0.05414915,0.00054499,0.03039614,-0.00209400,0.00638236
 ,0.00096239,0.00211671,0.00011979,-0.00010093,-0.00022840,-0.00006309,
 0.00112424,-0.00002611,-0.00009458,-0.00003042,-0.00008808,-0.00002654
 ,-0.00057729,0.00004352,-0.00027217,-0.02498422,0.00270952,-0.00333269
 ,-0.01724447,0.05450906,0.00016216,0.00116270,0.00146889,0.00187597,-0
 .00647421,-0.00200753,0.00026271,0.00197448,-0.00137236,-0.00002425,0.
 00015142,0.00029083,-0.00006161,-0.00000826,-0.00062244,0.03932619,0.0
 0294426,-0.00690979,-0.05145431,-0.00151126,-0.05748765,-0.01512524,0.
 00096253,-0.00242821,0.00073573,-0.00073301,0.00004003,-0.00031266,-0.
 00015455,-0.00021724,0.00195469,0.00202845,0.00203928,-0.00013456,-0.0
 0000598,0.00007622,-0.00003182,0.00026048,-0.00016902,-0.01869087,0.00
 241751,-0.00174492,0.04279099,-0.00625743,0.06868333,0.00013663,0.0000
 8072,0.00016427,-0.00033656,-0.00006909,-0.00042606,0.00026326,0.00008
 248,-0.00011412,-0.00005270,0.00002191,-0.00005613,-0.00001546,-0.0000
 1210,-0.00003509,0.00177828,-0.00030674,0.00004110,-0.00799265,0.00043
 088,-0.00065465,-0.29195869,-0.00356211,-0.06181434,-0.00552802,-0.001
 45766,-0.00116691,0.00048233,0.00041778,0.00041350,-0.00002798,0.00002
 843,-0.00025681,-0.00002477,0.00001109,-0.00005084,-0.00008099,-0.0000
 5739,-0.00002408,0.00056940,0.00044182,0.00012294,0.00118494,0.0012533
 9,-0.00034581,0.31540605,-0.00004755,0.00006842,-0.00020335,-0.0002152
 0,-0.00001466,0.00014815,-0.00008799,-0.00011012,0.00014501,0.00000165
 ,-0.00001505,0.00000631,0.00001887,-0.00000271,0.00005110,-0.00058847,
 0.00185096,-0.00196004,0.03260325,-0.00332685,0.00846883,-0.00613232,-
 0.04871480,-0.00078046,-0.02794218,-0.00174976,-0.00716582,-0.00027097
 ,0.00070252,0.00117901,0.00010862,-0.00034431,-0.00001446,0.00000512,-
 0.00001505,0.00005431,0.00017671,0.00006273,0.00004964,0.00000082,0.00
 137648,-0.00047469,0.00113085,-0.00522812,0.00343096,0.00411516,0.0586
 9202,0.00000174,-0.00024712,-0.00017695,0.00030085,0.00094698,-0.00005
 561,-0.00000229,-0.00006692,0.00005062,-0.00003035,0.00001803,-0.00009
 869,0.00001193,0.00002233,-0.00000260,-0.00061447,-0.00147249,0.001511
 81,-0.01473997,0.00201749,-0.00540083,-0.06139486,-0.00142634,-0.06842
 388,-0.01988400,-0.00112529,-0.00552907,-0.00134063,0.00068689,0.00090
 083,-0.00007094,-0.00005478,-0.00038906,0.00001247,0.00002856,-0.00002
 471,-0.00007577,-0.00005149,0.00006545,0.00075159,-0.00042180,0.000467
 74,-0.00065041,0.00252886,-0.00027107,0.06966368,0.00176406,0.06964108
 ,-0.00002169,-0.00004215,-0.00002177,0.00001230,0.00006284,-0.00070248
 ,0.00033280,0.00010217,-0.00007528,-0.00003708,0.00003686,-0.00007103,
 0.00007781,-0.00002067,0.00002034,0.00113646,0.00201295,-0.00121541,0.
 00321814,0.00053906,-0.00771195,-0.12702254,-0.01159548,0.12074907,0.0
 0357167,0.00071261,-0.00745364,0.00036174,-0.00101056,-0.00085046,-0.0
 0015679,0.00014365,0.00008991,-0.00000359,0.00001812,0.00000463,0.0000
 0508,0.00001947,0.00000893,0.00016712,-0.00038778,0.00023067,0.0004602
 2,-0.00062211,-0.00001752,-0.01629247,-0.00312321,0.02692553,0.1328112
 9,-0.00015375,-0.00059869,-0.00041435,0.00196839,0.00191000,0.00108077
 ,-0.00111906,-0.00017681,0.00062771,0.00000095,-0.00018910,-0.00002102
 ,-0.00007317,0.00012871,-0.00006904,-0.00014820,-0.00726477,0.00474053
 ,-0.01596392,-0.00141068,0.02313638,-0.01030838,-0.05058429,0.01899716
 ,0.01533185,0.00344351,-0.02329953,-0.00212896,-0.00485966,-0.00278756
 ,-0.00020677,-0.00136564,-0.00055724,0.00005585,0.00006829,-0.00004794
 ,-0.00004641,-0.00004076,0.00018152,-0.00060898,0.00069831,-0.00056126
 ,0.00013322,0.00131893,-0.00029451,-0.00007847,-0.00034616,-0.00017904
 ,0.01255293,0.05673487,0.00012850,0.00035412,0.00018091,-0.00094261,-0
 .00080013,-0.00037093,0.00033811,0.00009362,-0.00018762,-0.00005064,0.
 00002154,-0.00000138,0.00000010,-0.00005271,0.00003366,-0.00027486,0.0
 0324749,-0.00005804,0.00766359,0.00099856,-0.01250183,0.11898534,0.019
 83990,-0.23635471,0.00967957,0.00132003,-0.01609651,-0.00182912,-0.003
 87845,-0.00087113,0.00014239,-0.00033555,0.00072847,-0.00003277,-0.000
 02144,0.00001454,0.00003780,-0.00001736,-0.00007451,0.00003581,0.00015
 975,0.00042541,-0.00032884,-0.00037522,0.00032068,-0.00442224,-0.00108
 079,0.00872797,-0.12964082,-0.02049840,0.25573371,-0.00005848,-0.00013
 238,-0.00006568,0.00012672,0.00014347,-0.00005951,-0.00005071,0.000022
 85,-0.00000769,0.00006553,-0.00002417,0.00003579,0.00001459,-0.0000030
 2,0.00000553,-0.00008256,0.00032755,-0.00024102,0.00023717,-0.00113012
 ,-0.00068407,0.00132718,-0.00698650,0.00287443,-0.07723824,0.07275450,
 -0.03770838,0.00452496,-0.01513962,0.00800721,-0.00144884,0.00018585,0
 .00317981,0.00001719,0.00000007,0.00000529,0.00001003,0.00001100,0.000
 00716,0.00032121,-0.00019891,0.00003847,0.00022605,-0.00044596,0.00010
 919,0.00049611,-0.00003683,0.00057322,-0.00002042,0.00049088,0.0000610
 0,0.07978248,-0.00012424,-0.00020896,0.00014396,0.00041778,0.00030893,
 -0.00021692,-0.00022661,-0.00004623,0.00020200,0.00003078,-0.00004295,
 -0.00000787,0.00002031,0.00002555,-0.00000295,-0.00000049,0.00044641,-
 0.00007354,-0.00158983,-0.00249712,-0.00492005,0.00813439,-0.02186346,
 0.01052256,0.07129916,-0.23999243,0.09844000,0.00004485,-0.00150876,0.
 00150979,-0.00067038,0.00113897,-0.00001247,0.00003372,0.00003686,0.00
 004152,-0.00002293,0.00017782,-0.00009333,0.00027850,-0.00125654,0.000
 86795,-0.00001701,0.00021163,-0.00004754,-0.00039933,0.00092707,0.0004
 7344,0.00035584,0.00075342,0.00005211,-0.07682048,0.25913921,-0.000049
 80,0.00017030,0.00032111,0.00002032,-0.00032296,-0.00013580,-0.0000031
 0,0.00010440,0.00025272,-0.00020257,-0.00004384,-0.00005585,-0.0000297
 6,0.00000554,0.00001903,-0.00005018,0.00011733,0.00023467,-0.00081984,
 -0.00366363,-0.00351915,0.00750194,-0.01909048,0.01021072,-0.03695745,
 0.09863809,-0.09938434,-0.01019051,0.02515741,-0.01288877,0.00375100,-
 0.00102847,-0.00588969,-0.00001226,0.00001372,0.00004564,0.00001678,0.
 00016206,-0.00014744,0.00013681,-0.00130232,0.00065055,-0.00003361,0.0
 0014176,-0.00008313,0.00002523,0.00070169,0.00084772,0.00041637,0.0006
 6232,0.00074204,0.03883359,-0.10505944,0.10914767,0.00000819,-0.000100
 58,-0.00002215,0.00007328,0.00016137,-0.00002114,0.00003475,0.00001023
 ,0.00006272,-0.00003956,0.00006345,-0.00006258,0.00000815,0.00000742,-
 0.00001636,-0.00003264,-0.00025316,0.00014779,0.00016368,0.00041748,0.
 00022367,-0.00493795,-0.00064006,-0.00174472,-0.29653443,-0.02083257,-
 0.03818008,-0.01595510,-0.00051271,-0.00094380,0.00029482,0.00054890,-
 0.00104364,-0.00000830,0.00002169,-0.00002182,-0.00002695,0.00001525,0
 .00000085,0.00024198,-0.00009034,0.00002861,0.00023859,-0.00075749,0.0
 0026523,0.00138288,-0.00062467,-0.00052054,0.00067962,-0.00018629,-0.0
 0031410,-0.00993481,-0.00051115,-0.00161014,0.32267013,0.00005119,0.00
 012035,0.00005810,-0.00009382,-0.00024198,0.00006739,0.00010869,0.0000
 7481,-0.00004764,-0.00005041,0.00000266,-0.00000907,-0.00002355,-0.000
 00522,-0.00000909,0.00029100,-0.00010911,0.00008797,-0.00135807,0.0016
 3929,0.00025337,-0.02720419,-0.00353218,-0.00517936,-0.02072065,-0.053
 94796,-0.00162013,-0.00308549,-0.00108420,-0.00016315,-0.00125113,0.00
 010429,-0.00065394,-0.00001994,-0.00000423,-0.00001865,-0.00001194,-0.
 00002047,-0.00001485,0.00039023,0.00028452,-0.00012930,0.00059648,-0.0
 0036417,0.00028886,-0.00095327,-0.00388731,-0.00320048,0.00051646,0.00
 107380,0.00055318,0.02799876,0.00369671,0.00361575,0.02426545,0.055135
 53,0.00000234,-0.00002834,0.00008864,0.00018205,0.00013575,-0.00020536
 ,-0.00017190,-0.00000949,0.00010044,0.00001552,-0.00016688,0.00006036,
 -0.00000723,0.00001665,0.00000561,-0.00010636,-0.00008939,-0.00007036,
 0.00037096,0.00093451,0.00025356,-0.02229304,-0.00207870,-0.00508857,-
 0.03842122,-0.00164933,-0.05510628,0.03224815,0.00265382,0.00272397,0.
 00082112,-0.00096954,0.00156781,0.00000266,0.00001810,-0.00001009,-0.0
 0001018,0.00003934,-0.00002258,0.00019936,0.00015580,-0.00009798,0.000
 39272,-0.00033734,0.00042020,-0.00050484,-0.00426770,-0.00188252,-0.00
 011134,0.00063684,0.00047737,-0.01426868,-0.00184857,-0.00213846,0.040
 07201,0.00563489,0.06291136,0.00013136,0.00007756,-0.00003414,-0.00064
 741,0.00027238,0.00041353,0.00041039,0.00000110,0.00001261,-0.00009402
 ,0.00038707,-0.00034392,0.00002277,-0.00002348,-0.00003273,0.00155901,
 -0.00008819,0.00055604,-0.00012675,0.00020321,0.00023841,0.00035499,-0
 .00014273,-0.00102611,-0.01570919,-0.00070144,-0.00108505,-0.30107067,
 0.00896547,-0.03165859,-0.00775455,-0.00016921,-0.00187983,-0.00002459
 ,0.00002542,-0.00000585,-0.00001985,-0.00002265,-0.00000552,-0.0000051
 8,0.00008660,-0.00001610,0.00001864,-0.00017039,-0.00004648,0.00044185
 ,0.00066483,0.00063410,0.00033607,-0.00006008,0.00010204,0.00069062,-0
 .00025601,0.00004065,0.00010772,-0.00028865,0.00313816,0.32742585,0.00
 004173,0.00019362,0.00012169,-0.00009015,-0.00047058,-0.00002996,-0.00
 022276,-0.00010445,-0.00014140,0.00002200,-0.00026530,0.00036753,-0.00
 001882,0.00000348,0.00006500,-0.00056122,0.00337967,-0.00014253,0.0001
 5417,-0.00025465,0.00002119,0.00087465,-0.00006818,0.00004018,-0.00612
 040,-0.00041499,-0.00069923,0.00779267,-0.05136471,-0.00126875,0.03298
 967,-0.00408252,0.00530113,0.00000795,-0.00002914,0.00004071,0.0000355
 9,-0.00001806,0.00000402,0.00000587,0.00001591,-0.00006988,-0.00012028
 ,0.00003332,0.00007527,0.00007655,0.00022746,-0.00010947,-0.00005125,-
 0.00001948,0.00000573,-0.00030903,0.00019133,-0.00021709,-0.00044890,0
 .00077435,0.00153316,-0.01030341,0.05413558,0.00005407,0.00021593,-0.0
 0004469,-0.00050638,-0.00051554,0.00069955,0.00036491,0.00006158,-0.00
 022940,-0.00002314,0.00041634,-0.00004732,-0.00001591,-0.00003777,-0.0
 0004524,0.00144116,-0.00025576,0.00046775,0.00004491,0.00006036,-0.000
 38755,0.00058372,0.00052922,0.00178354,0.03145428,-0.00066023,0.003331
 43,-0.03123436,0.00012456,-0.05418272,-0.01591709,-0.00018577,-0.00349
 064,-0.00002703,0.00000124,0.00000492,0.00001218,-0.00000933,-0.000031
 81,-0.00000308,-0.00008038,0.00007762,-0.00008722,0.00009964,-0.000125
 09,-0.00061967,-0.00033880,-0.00034200,-0.00036129,0.00032363,0.000085
 48,-0.00064411,-0.00000978,0.00133344,0.00299689,0.00029599,-0.0053574
 7,0.03310938,-0.00458942,0.05867868,0.00020226,0.00004252,-0.00010138,
 -0.00036500,0.00063333,0.00048933,0.00011546,0.00000325,0.00004206,-0.
 00002318,0.00005364,-0.00021400,0.00002326,-0.00000426,-0.00002835,0.0
 0113762,0.00185093,-0.00058125,-0.00000594,-0.00024241,-0.00011378,-0.
 00127713,-0.00108630,0.00265783,0.00344355,0.01290413,0.01086465,-0.06
 875665,-0.05095322,-0.04584461,0.00096424,0.00629172,0.00597175,-0.000
 01284,0.00006767,0.00000382,-0.00000463,-0.00002677,0.00001603,-0.0000
 0129,0.00000964,-0.00000269,-0.00000593,0.00001464,0.00000468,0.000223
 96,0.00021609,0.00031561,0.00038481,0.00059517,0.00062093,0.00032230,-
 0.00019848,-0.00074389,0.00063079,0.00051462,-0.00043479,-0.00779028,-
 0.02451557,-0.02019080,0.07034289,-0.00072028,-0.00069374,-0.00023087,
 0.00232075,0.00032491,-0.00146687,-0.00035106,-0.00000090,0.00066437,0
 .00000501,-0.00014436,-0.00010860,0.00003274,0.00006633,0.00001826,0.0
 0063911,-0.00660507,0.00300258,-0.00055819,-0.00000100,0.00103561,-0.0
 0060478,0.00063135,0.00134392,0.00242839,0.00555726,0.00350935,-0.0493
 1006,-0.19164375,-0.12163319,-0.00868731,-0.01981520,-0.01904348,0.000
 00061,-0.00002125,-0.00020264,-0.00004152,0.00003390,0.00012770,0.0000
 2075,0.00007414,-0.00008758,0.00003518,0.00001551,-0.00012789,-0.00003
 954,-0.00010493,-0.00007323,-0.00015419,0.00037770,0.00033389,0.000356
 47,0.00041448,-0.00027213,0.00027200,0.00026987,-0.00030808,0.00003794
 ,0.00211663,0.00191367,0.05458178,0.20742833,0.00043629,0.00031913,0.0
 0017667,-0.00083804,0.00024309,0.00082635,0.00007063,-0.00002539,-0.00
 024005,-0.00000709,0.00003202,0.00001883,-0.00001442,-0.00001829,-0.00
 001407,-0.00029617,0.00500202,0.00000257,0.00017587,0.00083581,-0.0007
 7511,0.00409844,0.00265120,-0.00460065,-0.00798752,-0.02190508,-0.0180
 6623,-0.04531006,-0.12333337,-0.15491415,0.00424926,0.00912220,0.00902
 254,0.00001550,0.00008197,0.00009878,0.00001294,0.00003331,-0.00009814
 ,-0.00008406,-0.00007731,0.00017083,-0.00000436,-0.00008955,0.00012565
 ,-0.00003507,0.00030098,0.00028457,-0.00019510,-0.00173075,-0.00093878
 ,-0.00071535,0.00021126,0.00073767,0.00013434,-0.00002677,0.00135576,-
 0.00113493,-0.00218667,-0.00231430,0.04685587,0.13175948,0.16806767,-0
 .00001663,0.00015688,0.00001018,0.00033808,-0.00001807,-0.00010257,-0.
 00225540,-0.00176957,-0.00080515,-0.00207693,-0.00244687,-0.00082837,0
 .00004842,-0.00015182,0.00005998,0.00305289,0.00133942,-0.00954890,-0.
 00015915,-0.00099223,-0.00015130,-0.00015252,0.00010418,0.00004253,-0.
 00001730,0.00141387,-0.00031310,0.00504785,0.00140016,-0.01005607,-0.1
 1171389,-0.02064731,0.11378934,-0.00001671,0.00002469,-0.00003585,0.00
 005542,-0.00003393,0.00009647,0.00045531,-0.00012685,-0.00015082,0.000
 43112,-0.00008528,-0.00030800,0.00000692,0.00000039,-0.00000265,0.0000
 0168,-0.00001564,0.00004650,0.00043793,0.00015567,-0.00021979,0.000389
 73,0.00019368,-0.00036901,0.00063794,-0.00081873,-0.00008548,0.0002355
 6,-0.00062825,0.00045865,0.11884361,-0.00002597,-0.00025670,0.00019373
 ,0.00195239,0.00211889,-0.00323608,-0.00198348,-0.00105820,0.00137824,
 -0.00192517,-0.00043984,-0.00066576,-0.00006099,-0.00012001,0.00006897
 ,0.01362756,0.00043377,-0.02721298,-0.00202270,-0.00466923,-0.00124979
 ,-0.00005842,-0.00051107,-0.00017058,0.00350412,-0.00584446,0.00086481
 ,-0.01594711,-0.00244149,0.02559722,-0.02627064,-0.05781553,0.04730033
 ,-0.00005379,0.00005102,-0.00005220,-0.00000914,0.00013137,-0.00004834
 ,0.00062477,0.00020367,-0.00147366,-0.00000209,0.00001500,0.00012031,0
 .00001946,0.00013233,0.00004068,-0.00003442,0.00017897,0.00005477,-0.0
 0082336,-0.00002006,0.00192476,0.00005591,0.00006947,-0.00036180,0.000
 36432,0.00132041,-0.00068893,-0.00036930,0.00071383,-0.00059116,0.0284
 4426,0.06683388,-0.00038312,-0.00026730,0.00042291,0.00402694,0.001935
 13,-0.00326256,0.00065275,0.00202994,0.00229537,-0.00177238,-0.0002562
 6,0.00028866,0.00011228,0.00025690,0.00070122,0.00837399,-0.00074975,-
 0.02064164,-0.00241682,-0.00339695,-0.00006794,0.00005432,-0.00006683,
 0.00046345,-0.00148943,0.00238782,0.00068998,0.00561178,0.00271778,-0.
 00884403,0.10816302,0.03687018,-0.25576449,-0.00004636,-0.00004602,-0.
 00009103,-0.00001307,0.00016444,-0.00006536,0.00061131,0.00024343,-0.0
 0086185,0.00009360,-0.00000184,0.00009238,-0.00002261,0.00000814,-0.00
 003701,-0.00000418,0.00004516,0.00003832,0.00041595,-0.00013006,-0.000
 51125,0.00011099,0.00000038,0.00004276,-0.00030250,-0.00060623,0.00028
 140,0.00003176,0.00012985,0.00053583,-0.11995395,-0.04070986,0.2777630
 8,-0.00016670,-0.00029676,-0.00029268,0.00020986,0.00194440,-0.0007968
 2,-0.00049284,-0.00065011,0.00001795,0.00039005,0.00007274,0.00002925,
 -0.00003596,0.00008097,-0.00018956,-0.00376922,-0.00822914,-0.00311285
 ,0.00061992,0.00045595,0.00082537,-0.00002040,0.00002712,-0.00025068,0
 .00090193,-0.00089410,0.00062678,-0.00924735,0.00226977,-0.00097423,-0
 .30255105,0.00899897,-0.03730802,0.00003847,0.00002510,-0.00000594,-0.
 00009301,0.00001953,0.00002098,0.00036504,-0.00015043,0.00003935,0.000
 39813,-0.00004953,-0.00093439,-0.00006233,0.00002703,0.00013616,-0.000
 00223,-0.00003118,-0.00000568,0.00023398,0.00006595,0.00018018,0.00054
 540,0.00013454,-0.00074646,0.00110528,0.00157968,-0.00034595,0.0002161
 5,0.00036446,0.00011436,-0.01357395,0.00099380,-0.00185428,0.32499082,
 0.00025941,-0.00239713,-0.00004292,0.00023334,0.00365161,-0.00482819,-
 0.00094937,-0.00073836,0.00093873,0.00009730,-0.00024695,-0.00001476,0
 .00001437,0.00016876,-0.00008799,-0.03217449,-0.01266455,-0.01106470,-
 0.00111163,0.00034229,0.00190481,0.00016387,-0.00010245,0.00001542,0.0
 0063937,0.00146519,-0.00134549,0.03158614,-0.00167974,0.00554915,0.013
 10915,-0.04645037,0.00357947,0.00036197,-0.00005474,0.00022318,-0.0003
 0545,0.00001737,-0.00001484,0.00006552,-0.00008067,0.00027752,0.000707
 70,0.00016888,-0.00020258,-0.00004394,-0.00018015,-0.00009888,-0.00003
 112,0.00016951,0.00002537,-0.00024101,-0.00003188,-0.00041477,-0.00088
 123,-0.00004879,0.00035629,0.00114035,-0.00529970,0.00332957,-0.000382
 82,0.00100596,-0.00060814,-0.00549864,0.00097399,-0.00055803,-0.006758
 78,0.06201190,-0.00002385,-0.00208649,-0.00020168,0.00147992,0.0031252
 6,-0.00469971,0.00011953,0.00114725,0.00127596,-0.00103966,-0.00046679
 ,-0.00033523,0.00021173,0.00007496,0.00041393,-0.02450803,-0.01208225,
 -0.00700033,-0.00238725,-0.00003609,0.00112491,0.00031380,0.00006685,-
 0.00025770,-0.00141878,-0.00083920,0.00051034,-0.01380326,0.00247628,-
 0.00173339,-0.03369362,0.00447871,-0.05899216,0.00026560,-0.00001247,0
 .00005852,-0.00019213,-0.00010821,0.00020442,0.00022314,0.00001813,0.0
 0027756,0.00067909,-0.00013696,-0.00011905,0.00011854,-0.00002207,0.00
 013621,-0.00001317,0.00002860,-0.00005311,0.00024784,-0.00004208,0.000
 21090,0.00045795,0.00021656,-0.00002815,-0.00067318,0.00248502,-0.0001
 4558,0.00038123,-0.00028411,0.00053778,0.02842737,-0.00108269,0.006531
 78,0.04482716,0.00308179,0.06228379\\-0.00000027,-0.00002978,-0.000024
 67,-0.00000893,0.00004508,0.00002431,0.00001517,0.00000871,-0.00000831
 ,-0.00000580,-0.00000701,0.00000333,0.00000742,-0.00000462,-0.00000612
 ,-0.00000345,-0.00001703,0.00000471,-0.00000165,0.00001050,-0.00002756
 ,0.00000765,-0.00001508,0.00000519,0.00000120,0.00000218,-0.00000266,-
 0.00000026,-0.00000753,0.00000357,-0.00000041,0.00000436,0.00000730,-0
 .00000771,0.00001079,-0.00000280,-0.00000078,-0.00000453,0.00001401,0.
 00000149,0.00000517,0.00000583,-0.00000263,-0.00000344,0.00000462,-0.0
 0000132,0.00000149,-0.00000108,-0.00000096,0.00000248,-0.00000025,0.00
 000177,0.00000218,0.00000153,0.00000231,0.00000043,0.00000023,-0.00000
 166,-0.00000073,0.00000105,0.00000043,-0.00000048,-0.00000153,0.000001
 58,-0.00000044,-0.00000295,-0.00000316,-0.00000271,0.00000226\\\@


 WE MIGHT AS WELL ATTEMPT TO INTRODUCE A NEW PLANET 
 INTO THE SOLAR SYSTEM, OR TO ANNIHILATE ONE ALREADYIN EXISTENCE, 
 AS TO CREATE OR DESTROY A PARTICLE OF HYDROGEN.
 ALL THE CHANGES WE CAN PRODUCE CONSIST IN SEPARATING PARTICLES
 THAT ARE IN A STATE OF ... COMBINATION, AND JOINING 
 THOSE THAT WERE PREVIOUSLY AT A DISTANCE.

                                    -- JOHN DALTON, 1810
 Job cpu time:  0 days  0 hours 46 minutes 47.1 seconds.
 File lengths (MBytes):  RWF=     84 Int=      0 D2E=      0 Chk=      3 Scr=      1
 Normal termination of Gaussian 09 at Fri Aug 24 15:17:21 2018.
