 Entering Gaussian System, Link 0=g09
 Initial command:
 /home/fb_chem/chemsoft/lx24-amd64/Gaussian_09_C.01_NBO_3.1_64_istanbul-64/g09/l1.exe /local/2426264.1.parallel_long/Gau-27939.inp -scrdir=/local/2426264.1.parallel_long/
 Entering Link 1 = /home/fb_chem/chemsoft/lx24-amd64/Gaussian_09_C.01_NBO_3.1_64_istanbul-64/g09/l1.exe PID=     27940.
  
 Copyright (c) 1988,1990,1992,1993,1995,1998,2003,2009,2011,
            Gaussian, Inc.  All Rights Reserved.
  
 This is part of the Gaussian(R) 09 program.  It is based on
 the Gaussian(R) 03 system (copyright 2003, Gaussian, Inc.),
 the Gaussian(R) 98 system (copyright 1998, Gaussian, Inc.),
 the Gaussian(R) 94 system (copyright 1995, Gaussian, Inc.),
 the Gaussian 92(TM) system (copyright 1992, Gaussian, Inc.),
 the Gaussian 90(TM) system (copyright 1990, Gaussian, Inc.),
 the Gaussian 88(TM) system (copyright 1988, Gaussian, Inc.),
 the Gaussian 86(TM) system (copyright 1986, Carnegie Mellon
 University), and the Gaussian 82(TM) system (copyright 1983,
 Carnegie Mellon University). Gaussian is a federally registered
 trademark of Gaussian, Inc.
  
 This software contains proprietary and confidential information,
 including trade secrets, belonging to Gaussian, Inc.
  
 This software is provided under written license and may be
 used, copied, transmitted, or stored only in accord with that
 written license.
  
 The following legend is applicable only to US Government
 contracts under FAR:
  
                    RESTRICTED RIGHTS LEGEND
  
 Use, reproduction and disclosure by the US Government is
 subject to restrictions as set forth in subparagraphs (a)
 and (c) of the Commercial Computer Software - Restricted
 Rights clause in FAR 52.227-19.
  
 Gaussian, Inc.
 340 Quinnipiac St., Bldg. 40, Wallingford CT 06492
  
  
 ---------------------------------------------------------------
 Warning -- This program may not be used in any manner that
 competes with the business of Gaussian, Inc. or will provide
 assistance to any competitor of Gaussian, Inc.  The licensee
 of this program is prohibited from giving any competitor of
 Gaussian, Inc. access to this program.  By using this program,
 the user acknowledges that Gaussian, Inc. is engaged in the
 business of creating and licensing software in the field of
 computational chemistry and represents and warrants to the
 licensee that it is not a competitor of Gaussian, Inc. and that
 it will not use this program in any manner prohibited above.
 ---------------------------------------------------------------
  

 Cite this work as:
 Gaussian 09, Revision C.01,
 M. J. Frisch, G. W. Trucks, H. B. Schlegel, G. E. Scuseria, 
 M. A. Robb, J. R. Cheeseman, G. Scalmani, V. Barone, B. Mennucci, 
 G. A. Petersson, H. Nakatsuji, M. Caricato, X. Li, H. P. Hratchian, 
 A. F. Izmaylov, J. Bloino, G. Zheng, J. L. Sonnenberg, M. Hada, 
 M. Ehara, K. Toyota, R. Fukuda, J. Hasegawa, M. Ishida, T. Nakajima, 
 Y. Honda, O. Kitao, H. Nakai, T. Vreven, J. A. Montgomery, Jr., 
 J. E. Peralta, F. Ogliaro, M. Bearpark, J. J. Heyd, E. Brothers, 
 K. N. Kudin, V. N. Staroverov, T. Keith, R. Kobayashi, J. Normand, 
 K. Raghavachari, A. Rendell, J. C. Burant, S. S. Iyengar, J. Tomasi, 
 M. Cossi, N. Rega, J. M. Millam, M. Klene, J. E. Knox, J. B. Cross, 
 V. Bakken, C. Adamo, J. Jaramillo, R. Gomperts, R. E. Stratmann, 
 O. Yazyev, A. J. Austin, R. Cammi, C. Pomelli, J. W. Ochterski, 
 R. L. Martin, K. Morokuma, V. G. Zakrzewski, G. A. Voth, 
 P. Salvador, J. J. Dannenberg, S. Dapprich, A. D. Daniels, 
 O. Farkas, J. B. Foresman, J. V. Ortiz, J. Cioslowski, 
 and D. J. Fox, Gaussian, Inc., Wallingford CT, 2010.
 
 ******************************************
 Gaussian 09:  AM64L-G09RevC.01 23-Sep-2011
                26-Feb-2018 
 ******************************************
 %nprocs=4
 Will use up to    4 processors via shared memory.
 %chk=frag1-conf1.chk
 ----------------------------------------------------------------------
 #HF/6-31G* Geom=AllCheck Guess=Read Pop=(MK,ReadRadii) Integral=(Grid=
 UltraFine) iop(6/33=2)
 ----------------------------------------------------------------------
 1/29=7,38=1/1;
 2/12=2,40=1/2;
 3/5=1,6=6,7=1,11=9,14=-4,16=1,25=1,30=1,75=-5,116=-2/1,2,3;
 4/5=1/1;
 5/5=2,38=6/2;
 6/7=2,8=2,9=2,10=2,15=8,20=101,28=1,33=2/1,2;
 99/5=1,9=1/99;
 Structure from the checkpoint file:  frag1-conf1.chk
 ----------------------------
 Optimization for frag1-conf1
 ----------------------------
 Charge =  0 Multiplicity = 1
 Redundant internal coordinates found in file.
 C,0,0.282148015,-1.7546212514,-0.3392765085
 C,0,-0.2996434872,-2.7115798593,2.4376381358
 C,0,0.1910942424,-1.4416244614,-1.8291062809
 C,0,0.9044757266,-0.4932715314,2.4994847686
 C,0,-1.2371501843,-4.9544264708,2.3811076716
 C,0,-2.4766006817,-3.1623971823,1.2487874723
 C,0,-1.2830547226,0.1377600189,0.1372896253
 C,0,-0.3350041971,-1.2286095926,1.9799570321
 N,0,-1.3339031943,-3.5368614005,2.0605535738
 N,0,-0.5151140181,-1.0366386812,0.525850914
 O,0,1.0283597901,-2.6367661487,0.0703732258
 O,0,0.584280739,-3.0865519291,3.196805425
 H,0,0.535014242,-0.4256273703,-2.0543554484
 H,0,0.8371334229,-2.1530080647,-2.344521533
 H,0,-0.8296292851,-1.5439388293,-2.2146317126
 H,0,1.8064059613,-0.9497812991,2.0874577584
 H,0,0.8646203618,0.5635830991,2.2119039199
 H,0,0.9598700148,-0.5605751182,3.5880912864
 H,0,-2.1109052954,-5.2773361325,2.9624231793
 H,0,-0.3326129214,-5.113139428,2.9656200649
 H,0,-1.189405463,-5.5541493887,1.462036844
 H,0,-2.34174993,-3.4272395635,0.1898686996
 H,0,-2.681550469,-2.0938991841,1.3147819648
 H,0,-3.3616857704,-3.6937814847,1.6199813177
 H,0,-2.2822331762,0.1024374135,0.5901018093
 H,0,-1.4092983788,0.1800975206,-0.9436120056
 H,0,-0.798517169,1.0687931642,0.4635387563
 H,0,-1.227156404,-0.7818192994,2.4405196919
 Recover connectivity data from disk.
                          Input orientation:                          
 ---------------------------------------------------------------------
 Center     Atomic      Atomic             Coordinates (Angstroms)
 Number     Number       Type             X           Y           Z
 ---------------------------------------------------------------------
      1          6           0        0.282148   -1.754621   -0.339277
      2          6           0       -0.299643   -2.711580    2.437638
      3          6           0        0.191094   -1.441624   -1.829106
      4          6           0        0.904476   -0.493272    2.499485
      5          6           0       -1.237150   -4.954426    2.381108
      6          6           0       -2.476601   -3.162397    1.248787
      7          6           0       -1.283055    0.137760    0.137290
      8          6           0       -0.335004   -1.228610    1.979957
      9          7           0       -1.333903   -3.536861    2.060554
     10          7           0       -0.515114   -1.036639    0.525851
     11          8           0        1.028360   -2.636766    0.070373
     12          8           0        0.584281   -3.086552    3.196805
     13          1           0        0.535014   -0.425627   -2.054355
     14          1           0        0.837133   -2.153008   -2.344522
     15          1           0       -0.829629   -1.543939   -2.214632
     16          1           0        1.806406   -0.949781    2.087458
     17          1           0        0.864620    0.563583    2.211904
     18          1           0        0.959870   -0.560575    3.588091
     19          1           0       -2.110905   -5.277336    2.962423
     20          1           0       -0.332613   -5.113139    2.965620
     21          1           0       -1.189405   -5.554149    1.462037
     22          1           0       -2.341750   -3.427240    0.189869
     23          1           0       -2.681550   -2.093899    1.314782
     24          1           0       -3.361686   -3.693781    1.619981
     25          1           0       -2.282233    0.102437    0.590102
     26          1           0       -1.409298    0.180098   -0.943612
     27          1           0       -0.798517    1.068793    0.463539
     28          1           0       -1.227156   -0.781819    2.440520
 ---------------------------------------------------------------------
                    Distance matrix (angstroms):
                    1          2          3          4          5
     1  C    0.000000
     2  C    2.994245   0.000000
     3  C    1.525074   4.478696   0.000000
     4  C    3.168100   2.524801   4.488317   0.000000
     5  C    4.466264   2.431558   5.666177   4.949998   0.000000
     6  C    3.480585   2.521060   4.421661   4.485549   2.455556
     7  C    2.501616   3.791759   2.921350   3.280771   5.564817
     8  C    2.456911   1.552393   3.851119   1.531973   3.854413
     9  N    3.398115   1.375854   4.673873   3.803477   1.456574
    10  N    1.378249   2.550840   2.491700   2.491127   4.394585
    11  O    1.225897   2.715351   2.395287   3.241990   3.980399
    12  O    3.790673   1.224035   5.302846   2.704419   2.733483
    13  H    2.184413   5.108839   1.096024   4.569304   6.582091
    14  H    2.118426   4.947051   1.090452   5.120904   5.872152
    15  H    2.190295   4.825752   1.095890   5.131658   5.737449
    16  H    2.976604   2.768033   4.265046   1.091625   5.038516
    17  H    3.495979   3.483268   4.561169   1.096008   5.907157
    18  H    4.160441   2.745312   5.541958   1.092091   5.058620
    19  H    5.388640   3.184207   6.555199   5.673985   1.098019
    20  H    4.751833   2.459134   6.061658   4.805294   1.088592
    21  H    4.454954   3.134274   5.445206   5.574327   1.098471
    22  H    3.156341   3.120070   3.799240   4.947775   2.890323
    23  H    3.410942   2.704777   4.308316   4.101843   3.377271
    24  H    4.569087   3.318039   5.439730   5.405268   2.584993
    25  H    3.299767   3.906756   3.788673   3.762410   5.465508
    26  H    2.639952   4.585410   2.444451   4.202605   6.119374
    27  H    3.127942   4.293852   3.540868   3.079823   6.336296
    28  H    3.309322   2.141090   4.547140   2.151881   4.173042
                    6          7          8          9         10
     6  C    0.000000
     7  C    3.681171   0.000000
     8  C    2.976672   2.482174   0.000000
     9  N    1.450843   4.147815   2.516410   0.000000
    10  N    2.981429   1.455996   1.477740   3.045791   0.000000
    11  O    3.734929   3.611802   2.736453   3.217340   2.269401
    12  O    3.628984   4.821179   2.403696   2.274484   3.541865
    13  H    5.241229   2.902773   4.204449   5.486812   2.851941
    14  H    4.991149   3.987757   4.574881   5.102268   3.363613
    15  H    4.162595   2.926643   4.235406   4.743758   2.804731
    16  H    4.893177   3.811911   2.162161   4.068814   2.799217
    17  H    5.096497   3.016266   2.169067   4.655111   2.703174
    18  H    4.904197   4.174496   2.170038   4.056236   3.432132
    19  H    2.746497   6.163601   4.528935   2.108638   5.144604
    20  H    3.368916   6.039432   4.007631   2.075182   4.754328
    21  H    2.724486   5.844789   4.439430   2.109159   4.662512
    22  H    1.099834   3.719250   3.473531   2.127730   3.027285
    23  H    1.089976   2.884888   2.587946   2.110561   2.536466
    24  H    1.097055   4.604323   3.920135   2.081017   4.044811
    25  H    3.336284   1.097563   2.737715   4.038076   2.103410
    26  H    4.137393   1.089072   3.418453   4.779799   2.106973
    27  H    4.619042   1.099108   2.791492   4.903993   2.125334
    28  H    2.940831   2.480649   1.098943   2.783168   2.058615
                   11         12         13         14         15
    11  O    0.000000
    12  O    3.189685   0.000000
    13  H    3.105961   5.887074   0.000000
    14  H    2.470285   5.625099   1.777447   0.000000
    15  H    3.141280   5.801935   1.771598   1.779307   0.000000
    16  H    2.742244   2.700006   4.364148   4.693579   5.080323
    17  H    3.854244   3.791056   4.391827   5.304869   5.187133
    18  H    4.085291   2.583550   5.660028   6.143843   6.151496
    19  H    5.019118   3.481163   7.463782   6.827593   6.510132
    20  H    4.045630   2.236336   6.922839   6.190984   6.310406
    21  H    3.919992   3.499203   6.452935   5.492223   5.452442
    22  H    3.463635   4.209441   4.724615   4.260528   3.408072
    23  H    3.950531   3.897823   4.947778   5.076922   4.023534
    24  H    4.773999   4.292523   6.274221   5.976734   5.073203
    25  H    4.328207   5.018113   3.899858   4.840403   3.561902
    26  H    3.860708   5.638121   2.319699   3.528794   2.218966
    27  H    4.150088   5.162341   3.217358   4.576086   3.741648
    28  H    3.761087   3.027386   4.841076   5.388698   4.733845
                   16         17         18         19         20
    16  H    0.000000
    17  H    1.786818   0.000000
    18  H    1.766354   1.779521   0.000000
    19  H    5.902425   6.597982   5.662946   0.000000
    20  H    4.762365   5.850353   4.773240   1.785860   0.000000
    21  H    5.528675   6.496766   5.837403   1.782399   1.785874
    22  H    5.190938   5.504190   5.537723   3.341138   3.818859
    23  H    4.695507   4.521324   4.558395   3.629687   4.166364
    24  H    5.870029   6.028034   5.689137   2.423685   3.605635
    25  H    4.479532   3.570096   4.465284   5.882111   6.053623
    26  H    4.561224   3.908331   5.167000   6.747810   6.667811
    27  H    3.673878   2.465369   3.938222   6.945512   6.685340
    28  H    3.058654   2.497579   2.479708   4.611189   4.453793
                   21         22         23         24         25
    21  H    0.000000
    22  H    2.733140   0.000000
    23  H    3.771142   1.777271   0.000000
    24  H    2.864388   1.776664   1.765037   0.000000
    25  H    5.826793   3.552794   2.347022   4.078866   0.000000
    26  H    6.222306   3.894499   3.448192   5.038925   1.766444
    27  H    6.709185   4.761384   3.777969   5.530760   1.775183
    28  H    4.871754   3.647739   2.259226   3.702570   2.306327
                   26         27         28
    26  H    0.000000
    27  H    1.772825   0.000000
    28  H    3.522898   2.741706   0.000000
 Stoichiometry    C8H16N2O2
 Framework group  C1[X(C8H16N2O2)]
 Deg. of freedom    78
 Full point group                 C1      NOp   1
 Largest Abelian subgroup         C1      NOp   1
 Largest concise Abelian subgroup C1      NOp   1
                         Standard orientation:                         
 ---------------------------------------------------------------------
 Center     Atomic      Atomic             Coordinates (Angstroms)
 Number     Number       Type             X           Y           Z
 ---------------------------------------------------------------------
      1          6           0       -1.424837   -0.485200   -0.799050
      2          6           0        1.241150    0.643649   -0.035032
      3          6           0       -2.633703   -1.399611   -0.967407
      4          6           0       -0.533509    2.438150    0.035470
      5          6           0        2.984947   -1.023450   -0.339049
      6          6           0        1.185983   -1.520665    1.256651
      7          6           0       -2.148284    0.012796    1.543322
      8          6           0       -0.117632    1.069296    0.583400
      9          7           0        1.777119   -0.568054    0.335763
     10          7           0       -1.198793    0.072020    0.441104
     11          8           0       -0.665297   -0.272837   -1.737574
     12          8           0        1.847634    1.427406   -0.753477
     13          1           0       -3.576856   -0.858840   -0.828497
     14          1           0       -2.599455   -1.789413   -1.985232
     15          1           0       -2.621559   -2.239911   -0.264041
     16          1           0       -0.661213    2.381068   -1.047156
     17          1           0       -1.473014    2.760632    0.498687
     18          1           0        0.236884    3.183279    0.245084
     19          1           0        3.776937   -1.234356    0.391648
     20          1           0        3.315582   -0.238921   -1.017449
     21          1           0        2.784262   -1.940504   -0.909466
     22          1           0        0.635355   -2.318173    0.736627
     23          1           0        0.508477   -1.032607    1.957246
     24          1           0        1.987309   -1.989157    1.841391
     25          1           0       -1.623471   -0.203611    2.482674
     26          1           0       -2.881884   -0.776025    1.383100
     27          1           0       -2.686805    0.962544    1.669855
     28          1           0        0.047786    1.159894    1.666038
 ---------------------------------------------------------------------
 Rotational constants (GHZ):      1.2349780      0.7393105      0.6591646
 Standard basis: 6-31G(d) (6D, 7F)
 There are   212 symmetry adapted basis functions of A   symmetry.
 Integral buffers will be    131072 words long.
 Raffenetti 1 integral format.
 Two-electron integral symmetry is turned on.
   212 basis functions,   400 primitive gaussians,   212 cartesian basis functions
    47 alpha electrons       47 beta electrons
       nuclear repulsion energy       793.5651286934 Hartrees.
 NAtoms=   28 NActive=   28 NUniq=   28 SFac= 1.00D+00 NAtFMM=   60 NAOKFM=F Big=F
 One-electron integrals computed using PRISM.
 NBasis=   212 RedAO= T  NBF=   212
 NBsUse=   212 1.00D-06 NBFU=   212
 Initial guess read from the checkpoint file:  frag1-conf1.chk
 B after Tr=     0.000000    0.000000    0.000000
         Rot=    1.000000    0.000000    0.000000    0.000000 Ang=   0.00 deg.
 Initial guess orbital symmetries:
       Occupied  (A) (A) (A) (A) (A) (A) (A) (A) (A) (A) (A) (A)
                 (A) (A) (A) (A) (A) (A) (A) (A) (A) (A) (A) (A)
                 (A) (A) (A) (A) (A) (A) (A) (A) (A) (A) (A) (A)
                 (A) (A) (A) (A) (A) (A) (A) (A) (A) (A) (A)
       Virtual   (A) (A) (A) (A) (A) (A) (A) (A) (A) (A) (A) (A)
                 (A) (A) (A) (A) (A) (A) (A) (A) (A) (A) (A) (A)
                 (A) (A) (A) (A) (A) (A) (A) (A) (A) (A) (A) (A)
                 (A) (A) (A) (A) (A) (A) (A) (A) (A) (A) (A) (A)
                 (A) (A) (A) (A) (A) (A) (A) (A) (A) (A) (A) (A)
                 (A) (A) (A) (A) (A) (A) (A) (A) (A) (A) (A) (A)
                 (A) (A) (A) (A) (A) (A) (A) (A) (A) (A) (A) (A)
                 (A) (A) (A) (A) (A) (A) (A) (A) (A) (A) (A) (A)
                 (A) (A) (A) (A) (A) (A) (A) (A) (A) (A) (A) (A)
                 (A) (A) (A) (A) (A) (A) (A) (A) (A) (A) (A) (A)
                 (A) (A) (A) (A) (A) (A) (A) (A) (A) (A) (A) (A)
                 (A) (A) (A) (A) (A) (A) (A) (A) (A) (A) (A) (A)
                 (A) (A) (A) (A) (A) (A) (A) (A) (A) (A) (A) (A)
                 (A) (A) (A) (A) (A) (A) (A) (A) (A)
 Requested convergence on RMS density matrix=1.00D-08 within 128 cycles.
 Requested convergence on MAX density matrix=1.00D-06.
 Requested convergence on             energy=1.00D-06.
 No special actions if energy rises.
 SCF Done:  E(RHF) =  -570.888393580     A.U. after   14 cycles
             Convg  =    0.4311D-08             -V/T =  2.0026

 **********************************************************************

            Population analysis using the SCF density.

 **********************************************************************

 Orbital symmetries:
 BldTbl:  Degeneracy threshold= 1.00D-02
       Occupied  (A) (A) (A) (A) (A) (A) (A) (A) (A) (A) (A) (A)
                 (A) (A) (A) (A) (A) (A) (A) (A) (A) (A) (A) (A)
                 (A) (A) (A) (A) (A) (A) (A) (A) (A) (A) (A) (A)
                 (A) (A) (A) (A) (A) (A) (A) (A) (A) (A) (A)
       Virtual   (A) (A) (A) (A) (A) (A) (A) (A) (A) (A) (A) (A)
                 (A) (A) (A) (A) (A) (A) (A) (A) (A) (A) (A) (A)
                 (A) (A) (A) (A) (A) (A) (A) (A) (A) (A) (A) (A)
                 (A) (A) (A) (A) (A) (A) (A) (A) (A) (A) (A) (A)
                 (A) (A) (A) (A) (A) (A) (A) (A) (A) (A) (A) (A)
                 (A) (A) (A) (A) (A) (A) (A) (A) (A) (A) (A) (A)
                 (A) (A) (A) (A) (A) (A) (A) (A) (A) (A) (A) (A)
                 (A) (A) (A) (A) (A) (A) (A) (A) (A) (A) (A) (A)
                 (A) (A) (A) (A) (A) (A) (A) (A) (A) (A) (A) (A)
                 (A) (A) (A) (A) (A) (A) (A) (A) (A) (A) (A) (A)
                 (A) (A) (A) (A) (A) (A) (A) (A) (A) (A) (A) (A)
                 (A) (A) (A) (A) (A) (A) (A) (A) (A) (A) (A) (A)
                 (A) (A) (A) (A) (A) (A) (A) (A) (A) (A) (A) (A)
                 (A) (A) (A) (A) (A) (A) (A) (A) (A)
 The electronic state is 1-A.
 Alpha  occ. eigenvalues --  -20.52816 -20.50791 -15.60065 -15.58015 -11.35939
 Alpha  occ. eigenvalues --  -11.34416 -11.28569 -11.28358 -11.26684 -11.24473
 Alpha  occ. eigenvalues --  -11.24348 -11.21131  -1.38294  -1.36166  -1.25221
 Alpha  occ. eigenvalues --   -1.22846  -1.04937  -1.00068  -0.96543  -0.95621
 Alpha  occ. eigenvalues --   -0.93406  -0.86296  -0.76997  -0.71581  -0.69873
 Alpha  occ. eigenvalues --   -0.67467  -0.65787  -0.64426  -0.63380  -0.62913
 Alpha  occ. eigenvalues --   -0.59481  -0.58807  -0.58098  -0.57253  -0.55957
 Alpha  occ. eigenvalues --   -0.55693  -0.55094  -0.53944  -0.52298  -0.51451
 Alpha  occ. eigenvalues --   -0.51269  -0.49911  -0.49596  -0.41776  -0.40807
 Alpha  occ. eigenvalues --   -0.37377  -0.35608
 Alpha virt. eigenvalues --    0.18524   0.19043   0.21306   0.23622   0.24432
 Alpha virt. eigenvalues --    0.26137   0.28468   0.28798   0.29745   0.29929
 Alpha virt. eigenvalues --    0.31248   0.32056   0.32900   0.33278   0.33618
 Alpha virt. eigenvalues --    0.34292   0.34960   0.36297   0.36694   0.38339
 Alpha virt. eigenvalues --    0.40453   0.41609   0.42302   0.44952   0.48040
 Alpha virt. eigenvalues --    0.52061   0.53598   0.57120   0.59508   0.66670
 Alpha virt. eigenvalues --    0.68390   0.70985   0.74038   0.75306   0.76000
 Alpha virt. eigenvalues --    0.76766   0.78119   0.79572   0.82329   0.84422
 Alpha virt. eigenvalues --    0.86028   0.87597   0.91086   0.92030   0.93420
 Alpha virt. eigenvalues --    0.94074   0.95979   0.97137   0.98047   0.98863
 Alpha virt. eigenvalues --    1.01213   1.02739   1.04404   1.07396   1.09216
 Alpha virt. eigenvalues --    1.10437   1.10962   1.12419   1.12607   1.13759
 Alpha virt. eigenvalues --    1.14319   1.15233   1.16056   1.16683   1.17481
 Alpha virt. eigenvalues --    1.18664   1.18992   1.20191   1.21091   1.22730
 Alpha virt. eigenvalues --    1.23739   1.25805   1.26664   1.27085   1.28628
 Alpha virt. eigenvalues --    1.30366   1.32917   1.37591   1.40384   1.40918
 Alpha virt. eigenvalues --    1.46540   1.49297   1.54261   1.55032   1.55985
 Alpha virt. eigenvalues --    1.58932   1.61477   1.65798   1.66489   1.67824
 Alpha virt. eigenvalues --    1.70990   1.73122   1.74443   1.77458   1.85340
 Alpha virt. eigenvalues --    1.90318   1.96114   1.99224   1.99945   2.03250
 Alpha virt. eigenvalues --    2.09324   2.11037   2.12134   2.14223   2.15744
 Alpha virt. eigenvalues --    2.17103   2.17963   2.20149   2.21246   2.22245
 Alpha virt. eigenvalues --    2.26391   2.28305   2.29062   2.29413   2.32203
 Alpha virt. eigenvalues --    2.34177   2.35257   2.38835   2.40979   2.42227
 Alpha virt. eigenvalues --    2.43173   2.45036   2.45324   2.48101   2.54849
 Alpha virt. eigenvalues --    2.56010   2.58163   2.58702   2.60177   2.63270
 Alpha virt. eigenvalues --    2.65668   2.66478   2.71121   2.73276   2.75555
 Alpha virt. eigenvalues --    2.79378   2.81017   2.84296   2.87741   2.90212
 Alpha virt. eigenvalues --    2.94770   2.96112   2.99601   3.01013   3.02515
 Alpha virt. eigenvalues --    3.11229   3.15303   3.29719   3.34183   3.37326
 Alpha virt. eigenvalues --    3.41626   3.56005   3.57017   4.40617   4.44107
 Alpha virt. eigenvalues --    4.46198   4.59550   4.66535   4.68307   4.72824
 Alpha virt. eigenvalues --    4.75833   4.84088   4.90237   4.97609   5.07686
          Condensed to atoms (all electrons):
              1          2          3          4          5          6
     1  C    4.176868  -0.006243   0.360283  -0.002485  -0.000089  -0.001331
     2  C   -0.006243   4.083976  -0.000050  -0.052100  -0.029967  -0.026951
     3  C    0.360283  -0.000050   5.284930  -0.000279   0.000000  -0.000110
     4  C   -0.002485  -0.052100  -0.000279   5.103130  -0.000081   0.000208
     5  C   -0.000089  -0.029967   0.000000  -0.000081   4.959257  -0.049269
     6  C   -0.001331  -0.026951  -0.000110   0.000208  -0.049269   4.910527
     7  C   -0.024458   0.002230  -0.002940  -0.000091   0.000005  -0.000884
     8  C   -0.033875   0.359055   0.003352   0.348237   0.003701   0.000195
     9  N    0.001242   0.301590  -0.000044   0.003135   0.223659   0.236445
    10  N    0.263185  -0.031190  -0.110907  -0.062269  -0.000193  -0.007051
    11  O    0.588102   0.006575  -0.068019  -0.003953   0.000099  -0.000240
    12  O   -0.000235   0.587136  -0.000008   0.002941  -0.008755   0.001870
    13  H   -0.028048   0.000000   0.374575   0.000045   0.000000   0.000003
    14  H   -0.033607  -0.000002   0.384688   0.000004   0.000000  -0.000001
    15  H   -0.030051  -0.000002   0.374552   0.000000   0.000000   0.000047
    16  H    0.003169  -0.005123   0.000109   0.393010  -0.000004  -0.000016
    17  H   -0.000302   0.005022  -0.000025   0.383694   0.000001  -0.000004
    18  H    0.000115  -0.002326   0.000004   0.389271   0.000001  -0.000008
    19  H    0.000002   0.001598   0.000000   0.000001   0.397711  -0.003193
    20  H   -0.000006  -0.005089   0.000000  -0.000017   0.395376   0.003241
    21  H    0.000008   0.000817   0.000001   0.000001   0.399403  -0.001295
    22  H    0.000320   0.000096   0.000082  -0.000008   0.000647   0.396763
    23  H   -0.000226  -0.003553  -0.000023   0.000117   0.003520   0.399995
    24  H    0.000048   0.001338   0.000000   0.000004  -0.004566   0.402554
    25  H    0.001498   0.000074  -0.000096  -0.000196   0.000001  -0.000389
    26  H   -0.005006  -0.000040  -0.001478  -0.000149   0.000000   0.000018
    27  H   -0.000551  -0.000097   0.000015   0.001725   0.000000   0.000038
    28  H    0.004259  -0.037660  -0.000030  -0.041274  -0.000145  -0.002221
              7          8          9         10         11         12
     1  C   -0.024458  -0.033875   0.001242   0.263185   0.588102  -0.000235
     2  C    0.002230   0.359055   0.301590  -0.031190   0.006575   0.587136
     3  C   -0.002940   0.003352  -0.000044  -0.110907  -0.068019  -0.000008
     4  C   -0.000091   0.348237   0.003135  -0.062269  -0.003953   0.002941
     5  C    0.000005   0.003701   0.223659  -0.000193   0.000099  -0.008755
     6  C   -0.000884   0.000195   0.236445  -0.007051  -0.000240   0.001870
     7  C    4.942247  -0.045976  -0.000168   0.226380   0.001965  -0.000034
     8  C   -0.045976   5.129334  -0.114388   0.181475   0.009601  -0.076720
     9  N   -0.000168  -0.114388   7.363740   0.006818  -0.003389  -0.091210
    10  N    0.226380   0.181475   0.006818   7.491611  -0.103275   0.000978
    11  O    0.001965   0.009601  -0.003389  -0.103275   8.175945  -0.002090
    12  O   -0.000034  -0.076720  -0.091210   0.000978  -0.002090   8.204302
    13  H   -0.001950  -0.000192  -0.000001   0.002102   0.001003   0.000000
    14  H    0.000295  -0.000072   0.000002   0.003660   0.004246   0.000000
    15  H   -0.003503  -0.000061   0.000000   0.003685   0.001143   0.000000
    16  H    0.000060  -0.028913   0.000050  -0.005037   0.003910   0.001673
    17  H   -0.000348  -0.041037  -0.000022  -0.002444   0.000048   0.000535
    18  H   -0.000083  -0.031984   0.000001   0.004083   0.000039   0.001706
    19  H    0.000000  -0.000100  -0.048028  -0.000002   0.000000   0.000343
    20  H    0.000000   0.000634  -0.030203  -0.000015  -0.000022   0.012278
    21  H    0.000000   0.000008  -0.050570  -0.000002   0.000127   0.000507
    22  H    0.000177   0.000182  -0.051783  -0.000848   0.000420  -0.000024
    23  H   -0.000955   0.001422  -0.036325  -0.007438  -0.000008   0.000054
    24  H   -0.000026  -0.000514  -0.045178   0.000525  -0.000009  -0.000025
    25  H    0.400012  -0.004492   0.000000  -0.047365  -0.000044  -0.000002
    26  H    0.400664   0.003614   0.000008  -0.033748   0.000048   0.000000
    27  H    0.399309   0.000234  -0.000003  -0.049610   0.000020   0.000001
    28  H   -0.005605   0.412534   0.002302  -0.049239   0.000303   0.000777
             13         14         15         16         17         18
     1  C   -0.028048  -0.033607  -0.030051   0.003169  -0.000302   0.000115
     2  C    0.000000  -0.000002  -0.000002  -0.005123   0.005022  -0.002326
     3  C    0.374575   0.384688   0.374552   0.000109  -0.000025   0.000004
     4  C    0.000045   0.000004   0.000000   0.393010   0.383694   0.389271
     5  C    0.000000   0.000000   0.000000  -0.000004   0.000001   0.000001
     6  C    0.000003  -0.000001   0.000047  -0.000016  -0.000004  -0.000008
     7  C   -0.001950   0.000295  -0.003503   0.000060  -0.000348  -0.000083
     8  C   -0.000192  -0.000072  -0.000061  -0.028913  -0.041037  -0.031984
     9  N   -0.000001   0.000002   0.000000   0.000050  -0.000022   0.000001
    10  N    0.002102   0.003660   0.003685  -0.005037  -0.002444   0.004083
    11  O    0.001003   0.004246   0.001143   0.003910   0.000048   0.000039
    12  O    0.000000   0.000000   0.000000   0.001673   0.000535   0.001706
    13  H    0.508519  -0.018155  -0.026701  -0.000017  -0.000001   0.000000
    14  H   -0.018155   0.452104  -0.018940   0.000002   0.000000   0.000000
    15  H   -0.026701  -0.018940   0.514318  -0.000001   0.000000   0.000000
    16  H   -0.000017   0.000002  -0.000001   0.465818  -0.025626  -0.019361
    17  H   -0.000001   0.000000   0.000000  -0.025626   0.566852  -0.027374
    18  H    0.000000   0.000000   0.000000  -0.019361  -0.027374   0.498629
    19  H    0.000000   0.000000   0.000000   0.000000   0.000000   0.000000
    20  H    0.000000   0.000000   0.000000  -0.000003   0.000000  -0.000001
    21  H    0.000000   0.000000   0.000000   0.000000   0.000000   0.000000
    22  H    0.000003  -0.000004   0.000098   0.000001   0.000000   0.000000
    23  H    0.000000   0.000000   0.000009  -0.000003  -0.000003   0.000001
    24  H    0.000000   0.000000  -0.000001   0.000000   0.000000   0.000000
    25  H    0.000077   0.000000   0.000046  -0.000013   0.000072   0.000016
    26  H   -0.002553   0.000302  -0.001228  -0.000001   0.000013   0.000003
    27  H    0.000263  -0.000011   0.000103   0.000062   0.000528  -0.000121
    28  H   -0.000002   0.000001  -0.000003   0.003423  -0.002677  -0.001054
             19         20         21         22         23         24
     1  C    0.000002  -0.000006   0.000008   0.000320  -0.000226   0.000048
     2  C    0.001598  -0.005089   0.000817   0.000096  -0.003553   0.001338
     3  C    0.000000   0.000000   0.000001   0.000082  -0.000023   0.000000
     4  C    0.000001  -0.000017   0.000001  -0.000008   0.000117   0.000004
     5  C    0.397711   0.395376   0.399403   0.000647   0.003520  -0.004566
     6  C   -0.003193   0.003241  -0.001295   0.396763   0.399995   0.402554
     7  C    0.000000   0.000000   0.000000   0.000177  -0.000955  -0.000026
     8  C   -0.000100   0.000634   0.000008   0.000182   0.001422  -0.000514
     9  N   -0.048028  -0.030203  -0.050570  -0.051783  -0.036325  -0.045178
    10  N   -0.000002  -0.000015  -0.000002  -0.000848  -0.007438   0.000525
    11  O    0.000000  -0.000022   0.000127   0.000420  -0.000008  -0.000009
    12  O    0.000343   0.012278   0.000507  -0.000024   0.000054  -0.000025
    13  H    0.000000   0.000000   0.000000   0.000003   0.000000   0.000000
    14  H    0.000000   0.000000   0.000000  -0.000004   0.000000   0.000000
    15  H    0.000000   0.000000   0.000000   0.000098   0.000009  -0.000001
    16  H    0.000000  -0.000003   0.000000   0.000001  -0.000003   0.000000
    17  H    0.000000   0.000000   0.000000   0.000000  -0.000003   0.000000
    18  H    0.000000  -0.000001   0.000000   0.000000   0.000001   0.000000
    19  H    0.557448  -0.022093  -0.041957  -0.000673   0.000048   0.004014
    20  H   -0.022093   0.427599  -0.021189  -0.000098  -0.000099   0.000062
    21  H   -0.041957  -0.021189   0.549465   0.003446  -0.000088  -0.001615
    22  H   -0.000673  -0.000098   0.003446   0.560294  -0.032210  -0.040427
    23  H    0.000048  -0.000099  -0.000088  -0.032210   0.530637  -0.025565
    24  H    0.004014   0.000062  -0.001615  -0.040427  -0.025565   0.537006
    25  H    0.000000   0.000000   0.000000  -0.000034   0.001411  -0.000031
    26  H    0.000000   0.000000   0.000000  -0.000003  -0.000069  -0.000001
    27  H    0.000000   0.000000   0.000000   0.000001   0.000039   0.000001
    28  H    0.000008  -0.000017  -0.000002   0.000085  -0.000741  -0.000021
             25         26         27         28
     1  C    0.001498  -0.005006  -0.000551   0.004259
     2  C    0.000074  -0.000040  -0.000097  -0.037660
     3  C   -0.000096  -0.001478   0.000015  -0.000030
     4  C   -0.000196  -0.000149   0.001725  -0.041274
     5  C    0.000001   0.000000   0.000000  -0.000145
     6  C   -0.000389   0.000018   0.000038  -0.002221
     7  C    0.400012   0.400664   0.399309  -0.005605
     8  C   -0.004492   0.003614   0.000234   0.412534
     9  N    0.000000   0.000008  -0.000003   0.002302
    10  N   -0.047365  -0.033748  -0.049610  -0.049239
    11  O   -0.000044   0.000048   0.000020   0.000303
    12  O   -0.000002   0.000000   0.000001   0.000777
    13  H    0.000077  -0.002553   0.000263  -0.000002
    14  H    0.000000   0.000302  -0.000011   0.000001
    15  H    0.000046  -0.001228   0.000103  -0.000003
    16  H   -0.000013  -0.000001   0.000062   0.003423
    17  H    0.000072   0.000013   0.000528  -0.002677
    18  H    0.000016   0.000003  -0.000121  -0.001054
    19  H    0.000000   0.000000   0.000000   0.000008
    20  H    0.000000   0.000000   0.000000  -0.000017
    21  H    0.000000   0.000000   0.000000  -0.000002
    22  H   -0.000034  -0.000003   0.000001   0.000085
    23  H    0.001411  -0.000069   0.000039  -0.000741
    24  H   -0.000031  -0.000001   0.000001  -0.000021
    25  H    0.540263  -0.023629  -0.041398   0.002010
    26  H   -0.023629   0.498569  -0.028037   0.000257
    27  H   -0.041398  -0.028037   0.540314  -0.001314
    28  H    0.002010   0.000257  -0.001314   0.526194
 Mulliken atomic charges:
              1
     1  C    0.767416
     2  C    0.850884
     3  C   -0.598582
     4  C   -0.462620
     5  C   -0.290311
     6  C   -0.258944
     7  C   -0.286321
     8  C   -0.075253
     9  N   -0.667678
    10  N   -0.673868
    11  O   -0.612543
    12  O   -0.635998
    13  H    0.191029
    14  H    0.225488
    15  H    0.186487
    16  H    0.212829
    17  H    0.143096
    18  H    0.188444
    19  H    0.154873
    20  H    0.239662
    21  H    0.162938
    22  H    0.163495
    23  H    0.170053
    24  H    0.172428
    25  H    0.172209
    26  H    0.192446
    27  H    0.178487
    28  H    0.189853
 Sum of Mulliken atomic charges =   0.00000
 Mulliken charges with hydrogens summed into heavy atoms:
              1
     1  C    0.767416
     2  C    0.850884
     3  C    0.004423
     4  C    0.081750
     5  C    0.267162
     6  C    0.247032
     7  C    0.256821
     8  C    0.114600
     9  N   -0.667678
    10  N   -0.673868
    11  O   -0.612543
    12  O   -0.635998
 Sum of Mulliken charges with hydrogens summed into heavy atoms =   0.00000
 DipInt: DoE/N= T F RetVal/Mat= T F Init=T NMatP=  1 IDeriv=0 Min/MaxMlt=  0  4
 Entering OneElI...
 OneElI was handed    33436508 working-precision words.
 Multipole integrals L=0 to 4 MinM= 0 MaxM= 0.
 Requested accuracy = 0.1000D-12
 PrsmSu:  NPrtUS=   1 ThrOK=F IAlg=1 NPAlg=1 LenDen=           0.
 Prism:   IPart=     0 DynPar=F LinDyn=F Incr=          30.
 PRISM was handed    33189408 working-precision words and  3021 shell-pairs
 IPart=  0 NShTot=        3021 NBatch=          62 AvBLen=        48.7
 PrSmSu:  NxtVal=             31.
 Electronic moments (au):
        -94.00000000         -1.44203624         -1.16179890          1.94946971
      -1129.85470545       -585.30096880       -401.65666551         -3.35001076
          0.92794956          1.84047598       -402.41403676       -641.12351464
        -67.94965973        -54.33197722       1122.40861460        199.64825735
        451.92761442        254.22185249        -15.22129114        500.24989764
     -28194.24506459      -9866.02643017      -4398.25850367       -117.52223626
        770.82113546        547.90093569        212.38510408         45.16898877
         36.34288018      -6167.80101386      -4517.69641428      -1864.50895871
       -819.70640227       -591.70981945       -182.20170573
 Electronic spatial extent (au):  <R**2>=           2116.8123
 DipInt: DoE/N= F T RetVal/Mat= T F Init=T NMatP=  1 IDeriv=0 Min/MaxMlt=  0  4
 Nuclear    moments (au):
         94.00000000          0.00000000          0.00000000          0.00000000
       1079.57237027        530.55183088        343.99515924          0.00000000
          0.00000000          0.00000000        382.85208786        631.61418980
         81.69610137         43.97034845      -1151.25351647       -199.33730065
       -454.08544450       -256.74013009         18.01817897       -496.86581366
      24395.22158628       7791.70852515       3009.39646753         78.11873504
       -771.50864971       -543.31786952       -198.84287301        -60.23825121
        -42.75801727       5147.48254285       3654.93396918       1300.48980736
        850.55837439        624.91223433        180.37473111
 Total      moments (au):
          0.00000000         -1.44203624         -1.16179890          1.94946971
        -50.28233518        -54.74913792        -57.66150627         -3.35001076
          0.92794956          1.84047598        -19.56194890         -9.50932484
         13.74644164        -10.36162877        -28.84490187          0.31095671
         -2.15783008         -2.51827760          2.79688783          3.38408398
      -3799.02347832      -2074.31790501      -1388.86203614        -39.40350122
         -0.68751425          4.58306618         13.54223107        -15.06926245
         -6.41513709      -1020.31847101       -862.76244510       -564.01915135
         30.85197212         33.20241488         -1.82697461
 Traceless Quadrup. (au):
          3.94865795         -0.51814480         -3.43051315         -3.35001076
          0.92794956          1.84047598
 Charge=              0.0000 electrons
 Dipole moment (field-independent basis, Debye):
    X=             -3.6653    Y=             -2.9530    Z=              4.9551  Tot=              6.8343
 Quadrupole moment (field-independent basis, Debye-Ang):
   XX=            -67.6315   YY=            -73.6395   ZZ=            -77.5567
   XY=             -4.5059   XZ=              1.2481   YZ=              2.4755
 Traceless Quadrupole moment (field-independent basis, Debye-Ang):
   XX=              5.3111   YY=             -0.6969   ZZ=             -4.6142
   XY=             -4.5059   XZ=              1.2481   YZ=              2.4755
 Octapole moment (field-independent basis, Debye-Ang**2):
  XXX=            -13.9234  YYY=             -6.7684  ZZZ=              9.7842  XYY=             -7.3750
  XXY=            -20.5307  XXZ=              0.2213  XZZ=             -1.5359  YZZ=             -1.7924
  YYZ=              1.9907  XYZ=              2.4087
 Hexadecapole moment (field-independent basis, Debye-Ang**3):
 XXXX=          -1430.8943 YYYY=           -781.2875 ZZZZ=           -523.1120 XXXY=            -14.8412
 XXXZ=             -0.2590 YYYX=              1.7262 YYYZ=              5.1007 ZZZX=             -5.6758
 ZZZY=             -2.4162 XXYY=           -384.3008 XXZZ=           -324.9577 YYZZ=           -212.4366
 XXYZ=             11.6203 YYXZ=             12.5056 ZZXY=             -0.6881
 N-N= 7.935651286934D+02 E-N=-2.923299207883D+03  KE= 5.694290915038D+02
 Entering OneElI...
 OneElI was handed    33345708 working-precision words.
 Calculate electrostatic properties
    NBasis =   212  MinDer = 0  MaxDer = 0
    NGrid  =    28  NMatD  =   1
 Requested accuracy = 0.1000D-12
 PrsmSu:  NPrtUS=   4 ThrOK=T IAlg=1 NPAlg=1 LenDen=           0.
 Prism:   IPart=     0 DynPar=F LinDyn=F Incr=         197.
 PRISM was handed     8216075 working-precision words and  2828 shell-pairs
 PRISM was handed     8216075 working-precision words and  2828 shell-pairs
 PRISM was handed     8216075 working-precision words and  2828 shell-pairs
 PRISM was handed     8216075 working-precision words and  2828 shell-pairs
 IPart=  0 NShTot=       20160 NBatch=         720 AvBLen=        28.0
 IPart=  1 NShTot=       19992 NBatch=         714 AvBLen=        28.0
 IPart=  3 NShTot=       19432 NBatch=         694 AvBLen=        28.0
 IPart=  2 NShTot=       19600 NBatch=         700 AvBLen=        28.0
 PrSmSu:  NxtVal=            789.
 --------------------------------------------------------
       Center         ----      EFG at Nuclei      ----
                      3XX-RR        3YY-RR        3ZZ-RR
 --------------------------------------------------------
     1   Atom        0.088175     -0.224336      0.136161
     2   Atom        0.140207      0.074232     -0.214439
     3   Atom       -0.032323     -0.028982      0.061305
     4   Atom        0.003889     -0.059837      0.055948
     5   Atom       -0.172771      0.121335      0.051435
     6   Atom        0.079436     -0.039123     -0.040314
     7   Atom       -0.027116      0.131500     -0.104384
     8   Atom       -0.115500     -0.019958      0.135458
     9   Atom       -0.072837     -0.256851      0.329688
    10   Atom       -0.099072      0.452512     -0.353440
    11   Atom       -0.055398      0.144142     -0.088744
    12   Atom        0.620654      0.126563     -0.747216
    13   Atom       -0.179938      0.036844      0.143094
    14   Atom        0.147544      0.091232     -0.238776
    15   Atom        0.146887     -0.109806     -0.037082
    16   Atom        0.146399      0.141460     -0.287859
    17   Atom       -0.177103      0.106716      0.070386
    18   Atom       -0.068483     -0.066316      0.134799
    19   Atom       -0.084190      0.137001     -0.052812
    20   Atom        0.093186     -0.067413     -0.025773
    21   Atom        0.121120     -0.155171      0.034050
    22   Atom        0.038321     -0.080750      0.042428
    23   Atom       -0.017544      0.050305     -0.032761
    24   Atom       -0.089263      0.067926      0.021337
    25   Atom        0.035286      0.137082     -0.172368
    26   Atom       -0.050697     -0.079633      0.130330
    27   Atom        0.040801     -0.176019      0.135218
    28   Atom        0.125814      0.139472     -0.265286
 --------------------------------------------------------
                        XY            XZ            YZ
 --------------------------------------------------------
     1   Atom        0.382194     -0.189901      0.117973
     2   Atom       -0.074319     -0.340347     -0.262114
     3   Atom       -0.039149     -0.035249      0.000894
     4   Atom        0.053936      0.002595      0.039622
     5   Atom        0.125494      0.128511     -0.108286
     6   Atom       -0.091379      0.084602      0.154450
     7   Atom       -0.006473      0.188488      0.023004
     8   Atom       -0.181467     -0.043016     -0.075263
     9   Atom        0.371837      0.648077      0.545840
    10   Atom       -0.695048      0.311971     -0.423785
    11   Atom        0.833226      0.854265      0.883076
    12   Atom       -1.246019     -0.041420      0.203931
    13   Atom        0.184896      0.048616     -0.031953
    14   Atom        0.000604      0.010375     -0.152320
    15   Atom        0.000269     -0.006867      0.217568
    16   Atom       -0.001019     -0.057723     -0.018012
    17   Atom        0.112039      0.165346     -0.049532
    18   Atom       -0.213590     -0.068842     -0.056331
    19   Atom        0.065176     -0.202433      0.054164
    20   Atom       -0.096170      0.096616      0.193568
    21   Atom       -0.065956     -0.033656     -0.190827
    22   Atom       -0.160276     -0.098926     -0.142794
    23   Atom        0.126472      0.187574     -0.122095
    24   Atom        0.130820     -0.162282      0.106936
    25   Atom        0.039889     -0.171393      0.074485
    26   Atom       -0.221823     -0.036412     -0.053533
    27   Atom        0.179312      0.031773     -0.038247
    28   Atom       -0.012886     -0.060238     -0.032593
 --------------------------------------------------------


 ---------------------------------------------------------------------------------
              Nuclear Quadrupole in Principal Axis System
 ---------------------------------------------------------------------------------

       Atom             a.u.   MegaHertz   Gauss  10(-4) cm-1        Axes

              Baa    -0.5430   -72.867   -26.001   -24.306 -0.5581  0.7771 -0.2910
     1 C(13)  Bbb     0.1565    20.999     7.493     7.005  0.1959  0.4642  0.8638
              Bcc     0.3865    51.867    18.508    17.301  0.8063  0.4251 -0.4113
 
              Baa    -0.5352   -71.818   -25.627   -23.956  0.4473  0.3989  0.8005
     2 C(13)  Bbb     0.1636    21.956     7.835     7.324 -0.4901  0.8580 -0.1536
              Bcc     0.3716    49.862    17.792    16.632  0.7481  0.3236 -0.5793
 
              Baa    -0.0746   -10.016    -3.574    -3.341  0.7472  0.6370  0.1896
     3 C(13)  Bbb    -0.0004    -0.047    -0.017    -0.016 -0.5617  0.7577 -0.3321
              Bcc     0.0750    10.063     3.591     3.357 -0.3552  0.1417  0.9240
 
              Baa    -0.0979   -13.140    -4.689    -4.383 -0.4529  0.8652 -0.2152
     4 C(13)  Bbb     0.0233     3.130     1.117     1.044  0.8300  0.3211 -0.4560
              Bcc     0.0746    10.010     3.572     3.339  0.3255  0.3851  0.8636
 
              Baa    -0.2931   -39.326   -14.033   -13.118  0.8303 -0.3621 -0.4236
     5 C(13)  Bbb     0.0901    12.090     4.314     4.033  0.5469  0.3833  0.7443
              Bcc     0.2030    27.236     9.719     9.085  0.1072  0.8497 -0.5163
 
              Baa    -0.2423   -32.514   -11.602   -10.846  0.3608  0.6618 -0.6572
     6 C(13)  Bbb     0.1132    15.191     5.421     5.067  0.2881  0.5910  0.7534
              Bcc     0.1291    17.323     6.181     5.778  0.8870 -0.4612  0.0225
 
              Baa    -0.2594   -34.807   -12.420   -11.610 -0.6301 -0.0560  0.7745
     7 C(13)  Bbb     0.1197    16.064     5.732     5.358  0.6473 -0.5889  0.4840
              Bcc     0.1397    18.743     6.688     6.252  0.4290  0.8063  0.4073
 
              Baa    -0.2712   -36.397   -12.987   -12.141  0.7667  0.6119  0.1943
     8 C(13)  Bbb     0.0994    13.335     4.758     4.448  0.6092 -0.5979 -0.5209
              Bcc     0.1719    23.062     8.229     7.693  0.2025 -0.5178  0.8312
 
              Baa    -0.5860   -22.602    -8.065    -7.539  0.2043  0.7705 -0.6038
     9 N(14)  Bbb    -0.5368   -20.703    -7.387    -6.906  0.8231 -0.4691 -0.3201
              Bcc     1.1228    43.306    15.453    14.445  0.5299  0.4316  0.7300
 
              Baa    -0.5803   -22.382    -7.987    -7.466  0.8242  0.3838 -0.4165
    10 N(14)  Bbb    -0.5327   -20.546    -7.331    -6.854  0.1938  0.4998  0.8442
              Bcc     1.1131    42.929    15.318    14.319 -0.5321  0.7765 -0.3376
 
              Baa    -0.9364    67.757    24.177    22.601 -0.5756 -0.2034  0.7920
    11 O(17)  Bbb    -0.7816    56.559    20.182    18.866 -0.5980  0.7653 -0.2380
              Bcc     1.7180  -124.316   -44.359   -41.467  0.5577  0.6107  0.5622
 
              Baa    -0.9756    70.594    25.190    23.548  0.5191  0.6822 -0.5150
    12 O(17)  Bbb    -0.6792    49.143    17.536    16.392  0.3733  0.3610  0.8546
              Bcc     1.6548  -119.737   -42.725   -39.940  0.7689 -0.6359 -0.0672
 
              Baa    -0.2936  -156.648   -55.896   -52.252  0.8596 -0.4937 -0.1318
    13 H(1)   Bbb     0.1415    75.471    26.930    25.175  0.5064  0.7885  0.3491
              Bcc     0.1521    81.176    28.966    27.078 -0.0684 -0.3669  0.9278
 
              Baa    -0.2986  -159.293   -56.840   -53.134 -0.0221  0.3639  0.9312
    14 H(1)   Bbb     0.1457    77.751    27.743    25.935  0.8441  0.5059 -0.1776
              Bcc     0.1528    81.542    29.096    27.200 -0.5357  0.7821 -0.3184
 
              Baa    -0.2941  -156.906   -55.988   -52.338 -0.0105  0.7630 -0.6463
    15 H(1)   Bbb     0.1420    75.749    27.029    25.267  0.7142  0.4581  0.5292
              Bcc     0.1521    81.157    28.959    27.071  0.6998 -0.4560 -0.5498
 
              Baa    -0.2961  -158.006   -56.381   -52.705  0.1293  0.0411  0.9908
    16 H(1)   Bbb     0.1421    75.792    27.045    25.282 -0.1149  0.9930 -0.0262
              Bcc     0.1541    82.214    29.336    27.424  0.9849  0.1105 -0.1331
 
              Baa    -0.2970  -158.452   -56.540   -52.854  0.8574 -0.2901 -0.4250
    17 H(1)   Bbb     0.1412    75.325    26.878    25.126  0.0466  0.8663 -0.4973
              Bcc     0.1558    83.127    29.662    27.728  0.5125  0.4066  0.7563
 
              Baa    -0.2991  -159.567   -56.937   -53.226  0.6973  0.6883  0.2000
    18 H(1)   Bbb     0.1405    74.938    26.740    24.997 -0.5011  0.6676 -0.5506
              Bcc     0.1586    84.629    30.198    28.229 -0.5125  0.2837  0.8105
 
              Baa    -0.2884  -153.864   -54.903   -51.324  0.7212 -0.1951  0.6646
    19 H(1)   Bbb     0.1336    71.267    25.430    23.772 -0.6315  0.2091  0.7466
              Bcc     0.1548    82.597    29.473    27.551  0.2847  0.9582 -0.0276
 
              Baa    -0.2897  -154.560   -55.151   -51.556  0.3351  0.6970 -0.6339
    20 H(1)   Bbb     0.1370    73.074    26.075    24.375  0.7913 -0.5734 -0.2123
              Bcc     0.1527    81.486    29.076    27.181  0.5115  0.4305  0.7437
 
              Baa    -0.2869  -153.077   -54.622   -51.061  0.1780  0.8375  0.5166
    21 H(1)   Bbb     0.1326    70.752    25.246    23.600  0.9408  0.0091 -0.3389
              Bcc     0.1543    82.324    29.375    27.460  0.2885 -0.5463  0.7863
 
              Baa    -0.2845  -151.793   -54.163   -50.633  0.5039  0.7252  0.4692
    22 H(1)   Bbb     0.1347    71.884    25.650    23.978 -0.2821 -0.3753  0.8829
              Bcc     0.1498    79.908    28.513    26.655  0.8164 -0.5772  0.0155
 
              Baa    -0.3008  -160.490   -57.267   -53.534 -0.6240  0.4475  0.6406
    23 H(1)   Bbb     0.1368    73.003    26.049    24.351  0.1406  0.8707 -0.4714
              Bcc     0.1640    87.487    31.218    29.182  0.7687  0.2041  0.6062
 
              Baa    -0.2858  -152.511   -54.420   -50.872  0.7275 -0.4305  0.5342
    24 H(1)   Bbb     0.1318    70.304    25.086    23.451  0.6861  0.4549 -0.5678
              Bcc     0.1541    82.207    29.334    27.421  0.0014  0.7796  0.6263
 
              Baa    -0.2858  -152.491   -54.413   -50.866  0.4806 -0.1959  0.8548
    25 H(1)   Bbb     0.1317    70.272    25.075    23.440  0.8765  0.0777 -0.4750
              Bcc     0.1541    82.219    29.338    27.425  0.0266  0.9775  0.2091
 
              Baa    -0.2970  -158.485   -56.551   -52.865  0.6738  0.7239  0.1481
    26 H(1)   Bbb     0.1354    72.233    25.774    24.094 -0.3958  0.1843  0.8997
              Bcc     0.1617    86.252    30.777    28.771 -0.6240  0.6648 -0.4107
 
              Baa    -0.2829  -150.927   -53.855   -50.344 -0.4900  0.8639  0.1163
    27 H(1)   Bbb     0.1326    70.747    25.244    23.599 -0.5562 -0.4126  0.7214
              Bcc     0.1503    80.181    28.610    26.745  0.6712  0.2889  0.6826
 
              Baa    -0.2772  -147.876   -52.766   -49.326  0.1499  0.0817  0.9853
    28 H(1)   Bbb     0.1299    69.302    24.729    23.117  0.8280  0.5342 -0.1703
              Bcc     0.1473    78.574    28.037    26.209 -0.5403  0.8414  0.0124
 

 ---------------------------------------------------------------------------------

 No NMR shielding tensors so no spin-rotation constants.
 Leave Link  601 at Mon Feb 26 23:17:26 2018, MaxMem=   33554432 cpu:       0.9
 Merz-Kollman atomic radii used.
 Read replacement radii for each type of atom:
 Atom Element Radius
    1     6    1.50
    2     6    1.50
    3     6    1.50
    4     6    1.50
    5     6    1.50
    6     6    1.50
    7     6    1.50
    8     6    1.50
    9     7    1.50
   10     7    1.50
   11     8    1.40
   12     8    1.40
   13     1    1.20
   14     1    1.20
   15     1    1.20
   16     1    1.20
   17     1    1.20
   18     1    1.20
   19     1    1.20
   20     1    1.20
   21     1    1.20
   22     1    1.20
   23     1    1.20
   24     1    1.20
   25     1    1.20
   26     1    1.20
   27     1    1.20
   28     1    1.20
 Generate VDW surfaces: Layer= 4 Dens= 1 Start= 1.400 Inc= 0.200

 **********************************************************************

            Electrostatic Properties Using The SCF Density

 **********************************************************************

       Atomic Center    1 is at  -1.424837 -0.485200 -0.799050
       Atomic Center    2 is at   1.241150  0.643649 -0.035032
       Atomic Center    3 is at  -2.633703 -1.399611 -0.967407
       Atomic Center    4 is at  -0.533509  2.438150  0.035470
       Atomic Center    5 is at   2.984947 -1.023450 -0.339049
       Atomic Center    6 is at   1.185983 -1.520665  1.256651
       Atomic Center    7 is at  -2.148284  0.012796  1.543322
       Atomic Center    8 is at  -0.117632  1.069296  0.583400
       Atomic Center    9 is at   1.777119 -0.568054  0.335763
       Atomic Center   10 is at  -1.198793  0.072020  0.441104
       Atomic Center   11 is at  -0.665297 -0.272837 -1.737574
       Atomic Center   12 is at   1.847634  1.427406 -0.753477
       Atomic Center   13 is at  -3.576856 -0.858840 -0.828497
       Atomic Center   14 is at  -2.599455 -1.789413 -1.985232
       Atomic Center   15 is at  -2.621559 -2.239911 -0.264041
       Atomic Center   16 is at  -0.661213  2.381068 -1.047156
       Atomic Center   17 is at  -1.473014  2.760632  0.498687
       Atomic Center   18 is at   0.236884  3.183279  0.245084
       Atomic Center   19 is at   3.776937 -1.234356  0.391648
       Atomic Center   20 is at   3.315582 -0.238921 -1.017449
       Atomic Center   21 is at   2.784262 -1.940504 -0.909466
       Atomic Center   22 is at   0.635355 -2.318173  0.736627
       Atomic Center   23 is at   0.508477 -1.032607  1.957246
       Atomic Center   24 is at   1.987309 -1.989157  1.841391
       Atomic Center   25 is at  -1.623471 -0.203611  2.482674
       Atomic Center   26 is at  -2.881884 -0.776025  1.383100
       Atomic Center   27 is at  -2.686805  0.962544  1.669855
       Atomic Center   28 is at   0.047786  1.159894  1.666038
      ESP Fit Center   29 is at  -2.996709  0.907358 -0.799050
      ESP Fit Center   30 is at  -0.231901 -2.213466 -0.799050
      ESP Fit Center   31 is at  -2.615801  0.889247 -1.849050
      ESP Fit Center   32 is at   1.766150  1.552976  1.783621
      ESP Fit Center   33 is at   2.771098  1.626887  1.014968
      ESP Fit Center   34 is at   1.996646  2.297954  1.014968
      ESP Fit Center   35 is at  -4.205575 -2.792169 -0.967407
      ESP Fit Center   36 is at  -2.892524  0.400531 -2.017407
      ESP Fit Center   37 is at  -4.378688 -1.911985 -2.017407
      ESP Fit Center   38 is at  -0.792331  4.238292  1.085470
      ESP Fit Center   39 is at  -1.278180  4.401684  0.035470
      ESP Fit Center   40 is at  -0.792331  4.238292 -1.014530
      ESP Fit Center   41 is at  -1.724474  3.812596 -1.014530
      ESP Fit Center   42 is at  -2.278494  2.950524 -1.014530
      ESP Fit Center   43 is at  -2.278494  1.925776 -1.014530
      ESP Fit Center   44 is at   3.740443  0.630855  0.710951
      ESP Fit Center   45 is at   4.844405 -0.047532 -0.339049
      ESP Fit Center   46 is at   4.177883 -2.751716 -0.339049
      ESP Fit Center   47 is at   4.803601 -1.023450 -1.389049
      ESP Fit Center   48 is at   4.514896 -2.006688 -1.389049
      ESP Fit Center   49 is at   1.934947 -1.023450 -2.157702
      ESP Fit Center   50 is at   1.710983 -0.611339  3.075305
      ESP Fit Center   51 is at   0.660983 -2.429992  3.075305
      ESP Fit Center   52 is at   2.715931 -0.537427  2.306651
      ESP Fit Center   53 is at  -0.004982 -2.895112  2.306651
      ESP Fit Center   54 is at   0.927161 -3.320807  2.306651
      ESP Fit Center   55 is at  -2.673284  0.922123  3.361975
      ESP Fit Center   56 is at  -3.198284  0.012796  3.361975
      ESP Fit Center   57 is at  -1.392788  1.667101  2.593322
      ESP Fit Center   58 is at  -3.893269  0.525170  0.493322
      ESP Fit Center   59 is at   2.302119  0.341273  2.154417
      ESP Fit Center   60 is at   3.307067  0.415184  1.385763
      ESP Fit Center   61 is at   1.252119 -1.477381 -1.482890
      ESP Fit Center   62 is at  -2.389758  1.446466 -0.608896
      ESP Fit Center   63 is at  -0.665297 -2.232837 -1.737574
      ESP Fit Center   64 is at   0.314703 -1.970246 -1.737574
      ESP Fit Center   65 is at   1.032113 -1.252837 -1.737574
      ESP Fit Center   66 is at   1.032113 -0.272837 -2.717574
      ESP Fit Center   67 is at   0.707936  0.724876 -2.717574
      ESP Fit Center   68 is at  -0.140769  1.341496 -2.717574
      ESP Fit Center   69 is at  -1.189826  1.341496 -2.717574
      ESP Fit Center   70 is at  -2.038531  0.724876 -2.717574
      ESP Fit Center   71 is at  -0.140769 -1.887169 -2.717574
      ESP Fit Center   72 is at   0.707936 -1.270549 -2.717574
      ESP Fit Center   73 is at   0.314703 -0.272837 -3.434983
      ESP Fit Center   74 is at  -0.175297  0.575868 -3.434983
      ESP Fit Center   75 is at  -1.155297  0.575868 -3.434983
      ESP Fit Center   76 is at  -1.645297 -0.272837 -3.434983
      ESP Fit Center   77 is at  -1.155297 -1.121541 -3.434983
      ESP Fit Center   78 is at  -0.175297 -1.121541 -3.434983
      ESP Fit Center   79 is at  -0.665297 -0.272837 -3.697574
      ESP Fit Center   80 is at   2.337634  2.276111  0.943932
      ESP Fit Center   81 is at   3.545044  1.427406  0.226523
      ESP Fit Center   82 is at   3.220867  2.425118  0.226523
      ESP Fit Center   83 is at   2.372162  3.041738  0.226523
      ESP Fit Center   84 is at   3.807634  1.427406 -0.753477
      ESP Fit Center   85 is at   3.545044  2.407406 -0.753477
      ESP Fit Center   86 is at   2.827634  3.124816 -0.753477
      ESP Fit Center   87 is at   1.847634  3.387406 -0.753477
      ESP Fit Center   88 is at   3.545044  1.427406 -1.733477
      ESP Fit Center   89 is at   3.220867  2.425118 -1.733477
      ESP Fit Center   90 is at   2.372162  3.041738 -1.733477
      ESP Fit Center   91 is at   1.323105  3.041738 -1.733477
      ESP Fit Center   92 is at   2.827634  1.427406 -2.450887
      ESP Fit Center   93 is at   2.337634  2.276111 -2.450887
      ESP Fit Center   94 is at   1.357634  2.276111 -2.450887
      ESP Fit Center   95 is at   0.867634  1.427406 -2.450887
      ESP Fit Center   96 is at   1.357634  0.578701 -2.450887
      ESP Fit Center   97 is at   2.337634  0.578701 -2.450887
      ESP Fit Center   98 is at   1.847634  1.427406 -2.713477
      ESP Fit Center   99 is at  -4.375744 -0.278414  0.530652
      ESP Fit Center  100 is at  -4.375744 -1.439265  0.530652
      ESP Fit Center  101 is at  -3.299405  0.714661 -0.309348
      ESP Fit Center  102 is at  -4.375744  0.524874 -0.309348
      ESP Fit Center  103 is at  -5.078273 -0.312369 -0.309348
      ESP Fit Center  104 is at  -5.078273 -1.405311 -0.309348
      ESP Fit Center  105 is at  -3.299405  0.714661 -1.347645
      ESP Fit Center  106 is at  -4.375744  0.524874 -1.347645
      ESP Fit Center  107 is at  -5.078273 -0.312369 -1.347645
      ESP Fit Center  108 is at  -5.078273 -1.405311 -1.347645
      ESP Fit Center  109 is at  -4.375744 -0.278414 -2.187645
      ESP Fit Center  110 is at  -4.375744 -1.439265 -2.187645
      ESP Fit Center  111 is at  -4.100872 -1.242942 -2.504380
      ESP Fit Center  112 is at  -4.100872 -2.335884 -2.504380
      ESP Fit Center  113 is at  -3.398343 -3.173127 -2.504380
      ESP Fit Center  114 is at  -2.322004 -3.362914 -2.504380
      ESP Fit Center  115 is at  -1.375488 -2.816443 -2.504380
      ESP Fit Center  116 is at  -1.611976 -1.789413 -3.344380
      ESP Fit Center  117 is at  -2.294307 -0.850265 -3.344380
      ESP Fit Center  118 is at  -3.398343 -1.208987 -3.344380
      ESP Fit Center  119 is at  -3.398343 -2.369839 -3.344380
      ESP Fit Center  120 is at  -2.294307 -2.728562 -3.344380
      ESP Fit Center  121 is at  -2.599455 -1.789413 -3.665232
      ESP Fit Center  122 is at  -1.634080 -2.239911  1.095107
      ESP Fit Center  123 is at  -3.420447 -2.820337  1.095107
      ESP Fit Center  124 is at  -2.316411 -3.179060  1.095107
      ESP Fit Center  125 is at  -4.122976 -2.786383  0.255107
      ESP Fit Center  126 is at  -3.420447 -3.623625  0.255107
      ESP Fit Center  127 is at  -2.344108 -3.813413  0.255107
      ESP Fit Center  128 is at  -1.397593 -3.266941  0.255107
      ESP Fit Center  129 is at  -3.420447 -3.623625 -0.783190
      ESP Fit Center  130 is at  -2.344108 -3.813413 -0.783190
      ESP Fit Center  131 is at  -1.397593 -3.266941 -0.783190
      ESP Fit Center  132 is at   0.562754  3.408098 -1.566305
      ESP Fit Center  133 is at  -0.383762  3.954569 -1.566305
      ESP Fit Center  134 is at  -1.460100  3.764782 -1.566305
      ESP Fit Center  135 is at  -2.162630  2.927539 -1.566305
      ESP Fit Center  136 is at  -2.162630  1.834597 -1.566305
      ESP Fit Center  137 is at   0.326266  2.381068 -2.406305
      ESP Fit Center  138 is at  -0.356065  3.320217 -2.406305
      ESP Fit Center  139 is at  -1.460100  2.961494 -2.406305
      ESP Fit Center  140 is at  -1.460100  1.800643 -2.406305
      ESP Fit Center  141 is at  -0.661213  2.381068 -2.727156
      ESP Fit Center  142 is at  -1.473014  2.760632  2.178687
      ESP Fit Center  143 is at  -1.167866  3.699781  1.857835
      ESP Fit Center  144 is at  -2.271901  3.341058  1.857835
      ESP Fit Center  145 is at  -1.195563  4.334134  1.017835
      ESP Fit Center  146 is at  -2.271901  4.144346  1.017835
      ESP Fit Center  147 is at  -2.974431  3.307104  1.017835
      ESP Fit Center  148 is at  -2.271901  4.144346 -0.020462
      ESP Fit Center  149 is at  -2.974431  3.307104 -0.020462
      ESP Fit Center  150 is at  -2.974431  2.214161 -0.020462
      ESP Fit Center  151 is at  -2.271901  3.341058 -0.860462
      ESP Fit Center  152 is at   0.236884  3.183279  1.925084
      ESP Fit Center  153 is at   1.224364  3.183279  1.604232
      ESP Fit Center  154 is at   0.542032  4.122428  1.604232
      ESP Fit Center  155 is at   1.834659  3.183279  0.764232
      ESP Fit Center  156 is at   1.460851  4.210309  0.764232
      ESP Fit Center  157 is at   0.514335  4.756781  0.764232
      ESP Fit Center  158 is at  -0.562003  4.566993  0.764232
      ESP Fit Center  159 is at   1.460851  4.210309 -0.274065
      ESP Fit Center  160 is at   0.514335  4.756781 -0.274065
      ESP Fit Center  161 is at  -0.562003  4.566993 -0.274065
      ESP Fit Center  162 is at   0.542032  4.122428 -1.114065
      ESP Fit Center  163 is at   3.776937 -1.234356  2.071648
      ESP Fit Center  164 is at   4.764416 -1.234356  1.750797
      ESP Fit Center  165 is at   4.082085 -0.295207  1.750797
      ESP Fit Center  166 is at   4.082085 -2.173505  1.750797
      ESP Fit Center  167 is at   5.374712 -1.234356  0.910797
      ESP Fit Center  168 is at   5.000903 -0.207326  0.910797
      ESP Fit Center  169 is at   4.054388  0.339145  0.910797
      ESP Fit Center  170 is at   4.054388 -2.807857  0.910797
      ESP Fit Center  171 is at   5.000903 -2.261386  0.910797
      ESP Fit Center  172 is at   5.374712 -1.234356 -0.127500
      ESP Fit Center  173 is at   5.000903 -0.207326 -0.127500
      ESP Fit Center  174 is at   5.000903 -2.261386 -0.127500
      ESP Fit Center  175 is at   4.539548  0.788109 -0.498301
      ESP Fit Center  176 is at   4.913357 -0.238921 -1.536598
      ESP Fit Center  177 is at   4.539548  0.788109 -1.536598
      ESP Fit Center  178 is at   4.303061 -0.238921 -2.376598
      ESP Fit Center  179 is at   3.620730  0.700227 -2.376598
      ESP Fit Center  180 is at   2.516694  0.341505 -2.376598
      ESP Fit Center  181 is at   2.516694 -0.819347 -2.376598
      ESP Fit Center  182 is at   3.620730 -1.178070 -2.376598
      ESP Fit Center  183 is at   3.315582 -0.238921 -2.697449
      ESP Fit Center  184 is at   1.985374 -3.324218 -0.390318
      ESP Fit Center  185 is at   3.061713 -3.514005 -0.390318
      ESP Fit Center  186 is at   4.008229 -2.967534 -0.390318
      ESP Fit Center  187 is at   1.282845 -2.486975 -1.428615
      ESP Fit Center  188 is at   1.985374 -3.324218 -1.428615
      ESP Fit Center  189 is at   3.061713 -3.514005 -1.428615
      ESP Fit Center  190 is at   4.008229 -2.967534 -1.428615
      ESP Fit Center  191 is at   3.771741 -1.940504 -2.268615
      ESP Fit Center  192 is at   1.985374 -1.360078 -2.268615
      ESP Fit Center  193 is at   1.985374 -2.520930 -2.268615
      ESP Fit Center  194 is at   3.089410 -2.879653 -2.268615
      ESP Fit Center  195 is at   2.784262 -1.940504 -2.589466
      ESP Fit Center  196 is at  -0.163532 -2.898599  2.095775
      ESP Fit Center  197 is at  -0.866062 -2.864645  1.255775
      ESP Fit Center  198 is at  -0.163532 -3.701887  1.255775
      ESP Fit Center  199 is at   0.912806 -3.891674  1.255775
      ESP Fit Center  200 is at  -0.866062 -2.864645  0.217478
      ESP Fit Center  201 is at  -0.163532 -3.701887  0.217478
      ESP Fit Center  202 is at   0.912806 -3.891674  0.217478
      ESP Fit Center  203 is at   1.859322 -3.345203  0.217478
      ESP Fit Center  204 is at  -0.163532 -2.898599 -0.622522
      ESP Fit Center  205 is at   0.940503 -3.257322 -0.622522
      ESP Fit Center  206 is at   0.635355 -2.318173 -0.943373
      ESP Fit Center  207 is at   0.508477 -1.032607  3.637246
      ESP Fit Center  208 is at   1.495956 -1.032607  3.316395
      ESP Fit Center  209 is at   0.813625 -0.093458  3.316395
      ESP Fit Center  210 is at  -0.290410 -1.613033  3.316395
      ESP Fit Center  211 is at   0.813625 -1.971756  3.316395
      ESP Fit Center  212 is at  -0.290410 -2.416321  2.476395
      ESP Fit Center  213 is at   1.987309 -1.989157  3.521391
      ESP Fit Center  214 is at   2.974788 -1.989157  3.200540
      ESP Fit Center  215 is at   2.292457 -1.050008  3.200540
      ESP Fit Center  216 is at   1.188422 -2.569583  3.200540
      ESP Fit Center  217 is at   2.292457 -2.928306  3.200540
      ESP Fit Center  218 is at   3.585084 -1.989157  2.360540
      ESP Fit Center  219 is at   3.211276 -0.962127  2.360540
      ESP Fit Center  220 is at   1.188422 -3.372871  2.360540
      ESP Fit Center  221 is at   2.264760 -3.562658  2.360540
      ESP Fit Center  222 is at   3.211276 -3.016187  2.360540
      ESP Fit Center  223 is at   2.264760 -3.562658  1.322243
      ESP Fit Center  224 is at   3.211276 -3.016187  1.322243
      ESP Fit Center  225 is at  -1.623471 -0.203611  4.162674
      ESP Fit Center  226 is at  -0.635991 -0.203611  3.841823
      ESP Fit Center  227 is at  -1.318323  0.735537  3.841823
      ESP Fit Center  228 is at  -2.422358  0.376814  3.841823
      ESP Fit Center  229 is at  -2.422358 -0.784037  3.841823
      ESP Fit Center  230 is at  -1.318323 -1.142760  3.841823
      ESP Fit Center  231 is at  -1.346020  1.369890  3.001823
      ESP Fit Center  232 is at  -2.422358 -1.587325  3.001823
      ESP Fit Center  233 is at  -1.346020 -1.777113  3.001823
      ESP Fit Center  234 is at  -3.680772 -1.356451  2.742249
      ESP Fit Center  235 is at  -2.576736 -1.715173  2.742249
      ESP Fit Center  236 is at  -4.383302 -0.229554  1.902249
      ESP Fit Center  237 is at  -4.383302 -1.322496  1.902249
      ESP Fit Center  238 is at  -3.680772 -2.159738  1.902249
      ESP Fit Center  239 is at  -2.604434 -2.349526  1.902249
      ESP Fit Center  240 is at  -4.383302 -0.229554  0.863952
      ESP Fit Center  241 is at  -4.383302 -1.322496  0.863952
      ESP Fit Center  242 is at  -2.686805  0.962544  3.349855
      ESP Fit Center  243 is at  -2.381657  1.901693  3.029003
      ESP Fit Center  244 is at  -3.485693  1.542970  3.029003
      ESP Fit Center  245 is at  -1.462838  1.989574  2.189003
      ESP Fit Center  246 is at  -2.409354  2.536046  2.189003
      ESP Fit Center  247 is at  -3.485693  2.346258  2.189003
      ESP Fit Center  248 is at  -4.188222  1.509016  2.189003
      ESP Fit Center  249 is at  -4.188222  0.416073  2.189003
      ESP Fit Center  250 is at  -3.485693  2.346258  1.150706
      ESP Fit Center  251 is at  -4.188222  1.509016  1.150706
      ESP Fit Center  252 is at  -4.188222  0.416073  1.150706
      ESP Fit Center  253 is at  -3.485693  1.542970  0.310706
      ESP Fit Center  254 is at   0.047786  1.159894  3.346038
      ESP Fit Center  255 is at   1.035266  1.159894  3.025186
      ESP Fit Center  256 is at   0.352934  2.099043  3.025186
      ESP Fit Center  257 is at  -0.751101  1.740320  3.025186
      ESP Fit Center  258 is at   1.645561  1.159894  2.185186
      ESP Fit Center  259 is at   1.271753  2.186924  2.185186
      ESP Fit Center  260 is at   0.325237  2.733396  2.185186
      ESP Fit Center  261 is at  -0.751101  2.543608  2.185186
      ESP Fit Center  262 is at  -2.883695  1.344151 -1.333100
      ESP Fit Center  263 is at  -2.653614  0.932886 -2.295426
      ESP Fit Center  264 is at   2.819674  1.658105  1.461343
      ESP Fit Center  265 is at   2.020633  2.350478  1.461343
      ESP Fit Center  266 is at  -4.434091 -1.928253  0.528969
      ESP Fit Center  267 is at  -4.741814 -2.414824 -0.433357
      ESP Fit Center  268 is at  -4.741814 -2.414824 -1.501457
      ESP Fit Center  269 is at  -4.092561 -3.228962 -1.501457
      ESP Fit Center  270 is at  -3.154363 -3.680774 -1.501457
      ESP Fit Center  271 is at  -2.113042 -3.680774 -1.501457
      ESP Fit Center  272 is at  -1.174845 -3.228962 -1.501457
      ESP Fit Center  273 is at  -2.900742  0.457685 -2.463782
      ESP Fit Center  274 is at  -0.012849  3.339960  2.197795
      ESP Fit Center  275 is at  -0.800548  4.295446  1.531846
      ESP Fit Center  276 is at  -1.054170  4.719313  0.569520
      ESP Fit Center  277 is at  -1.054170  4.719313 -0.498580
      ESP Fit Center  278 is at   0.245974  4.144979 -1.460906
      ESP Fit Center  279 is at  -0.800548  4.295446 -1.460906
      ESP Fit Center  280 is at   3.764430  0.683379  1.157327
      ESP Fit Center  281 is at   4.443806  0.805900  0.195001
      ESP Fit Center  282 is at   5.324774 -1.023450 -0.873099
      ESP Fit Center  283 is at   5.093059 -2.038663 -0.873099
      ESP Fit Center  284 is at   4.563472 -2.037906 -1.835424
      ESP Fit Center  285 is at   1.943626 -1.023450 -2.501374
      ESP Fit Center  286 is at   2.984947 -1.023450 -2.739049
      ESP Fit Center  287 is at   1.706643 -0.618855  3.418976
      ESP Fit Center  288 is at   0.665322 -2.422476  3.418976
      ESP Fit Center  289 is at   1.965466  0.186164  2.753027
      ESP Fit Center  290 is at  -0.042795 -2.938750  2.753027
      ESP Fit Center  291 is at   0.918944 -3.377962  2.753027
      ESP Fit Center  292 is at  -2.668945  0.914606  3.705647
      ESP Fit Center  293 is at  -3.189605  0.012796  3.705647
      ESP Fit Center  294 is at  -1.368801  1.719625  3.039697
      ESP Fit Center  295 is at  -3.948672 -0.515846  3.039697
      ESP Fit Center  296 is at  -1.627624 -2.268367  2.077372
      ESP Fit Center  297 is at   2.297779  0.333757  2.498089
      ESP Fit Center  298 is at   3.355643  0.446402  1.832139
      ESP Fit Center  299 is at   0.575265 -2.070100 -1.239127
      ESP Fit Center  300 is at   1.518541 -0.272837 -2.236021
      ESP Fit Center  301 is at  -0.402065 -2.440752 -2.236021
      ESP Fit Center  302 is at   0.575265 -2.070100 -2.236021
      ESP Fit Center  303 is at   1.268396 -1.287717 -2.236021
      ESP Fit Center  304 is at   1.086005 -0.272837 -3.134191
      ESP Fit Center  305 is at   0.751536  0.756553 -3.134191
      ESP Fit Center  306 is at  -0.124115  1.392751 -3.134191
      ESP Fit Center  307 is at  -1.206479  1.392751 -3.134191
      ESP Fit Center  308 is at  -2.082131  0.756553 -3.134191
      ESP Fit Center  309 is at  -0.124115 -1.938424 -3.134191
      ESP Fit Center  310 is at   0.751536 -1.302226 -3.134191
      ESP Fit Center  311 is at   0.306602 -0.272837 -3.755744
      ESP Fit Center  312 is at  -0.179347  0.568853 -3.755744
      ESP Fit Center  313 is at  -1.151247  0.568853 -3.755744
      ESP Fit Center  314 is at  -1.637197 -0.272837 -3.755744
      ESP Fit Center  315 is at  -1.151247 -1.114526 -3.755744
      ESP Fit Center  316 is at  -0.179347 -1.114526 -3.755744
      ESP Fit Center  317 is at  -0.665297 -0.272837 -3.977574
      ESP Fit Center  318 is at   3.598936  1.427406  0.643140
      ESP Fit Center  319 is at   3.264467  2.456796  0.643140
      ESP Fit Center  320 is at   2.388816  3.092993  0.643140
      ESP Fit Center  321 is at   4.031472  1.427406 -0.255030
      ESP Fit Center  322 is at   3.781327  2.442286 -0.255030
      ESP Fit Center  323 is at   3.088195  3.224670 -0.255030
      ESP Fit Center  324 is at   2.110866  3.595322 -0.255030
      ESP Fit Center  325 is at   3.781327  2.442286 -1.251924
      ESP Fit Center  326 is at   3.088195  3.224670 -1.251924
      ESP Fit Center  327 is at   2.110866  3.595322 -1.251924
      ESP Fit Center  328 is at   3.598936  1.427406 -2.150094
      ESP Fit Center  329 is at   3.264467  2.456796 -2.150094
      ESP Fit Center  330 is at   2.388816  3.092993 -2.150094
      ESP Fit Center  331 is at   1.306452  3.092993 -2.150094
      ESP Fit Center  332 is at   2.819533  1.427406 -2.771648
      ESP Fit Center  333 is at   2.333584  2.269096 -2.771648
      ESP Fit Center  334 is at   1.361684  2.269096 -2.771648
      ESP Fit Center  335 is at   0.875734  1.427406 -2.771648
      ESP Fit Center  336 is at   1.361684  0.585716 -2.771648
      ESP Fit Center  337 is at   2.333584  0.585716 -2.771648
      ESP Fit Center  338 is at   1.847634  1.427406 -2.993477
      ESP Fit Center  339 is at  -4.090680  0.722547  0.131503
      ESP Fit Center  340 is at  -4.922064  0.118511  0.131503
      ESP Fit Center  341 is at  -5.239625 -0.858840  0.131503
      ESP Fit Center  342 is at  -4.922064 -1.836191  0.131503
      ESP Fit Center  343 is at  -3.576856  1.061160 -0.828497
      ESP Fit Center  344 is at  -4.536856  0.803929 -0.828497
      ESP Fit Center  345 is at  -5.239625  0.101160 -0.828497
      ESP Fit Center  346 is at  -5.496856 -0.858840 -0.828497
      ESP Fit Center  347 is at  -5.239625 -1.818840 -0.828497
      ESP Fit Center  348 is at  -4.090680  0.722547 -1.788497
      ESP Fit Center  349 is at  -4.922064  0.118511 -1.788497
      ESP Fit Center  350 is at  -5.239625 -0.858840 -1.788497
      ESP Fit Center  351 is at  -4.922064 -1.836191 -1.788497
      ESP Fit Center  352 is at  -4.056856 -0.027455 -2.491265
      ESP Fit Center  353 is at  -4.536856 -0.858840 -2.491265
      ESP Fit Center  354 is at  -3.559455 -3.452182 -1.985232
      ESP Fit Center  355 is at  -2.599455 -3.709413 -1.985232
      ESP Fit Center  356 is at  -1.639455 -3.452182 -1.985232
      ESP Fit Center  357 is at  -3.944663 -0.812062 -2.945232
      ESP Fit Center  358 is at  -4.262224 -1.789413 -2.945232
      ESP Fit Center  359 is at  -3.944663 -2.766764 -2.945232
      ESP Fit Center  360 is at  -3.113279 -3.370800 -2.945232
      ESP Fit Center  361 is at  -2.085631 -3.370800 -2.945232
      ESP Fit Center  362 is at  -1.254247 -2.766764 -2.945232
      ESP Fit Center  363 is at  -1.639455 -1.789413 -3.648001
      ESP Fit Center  364 is at  -2.119455 -0.958029 -3.648001
      ESP Fit Center  365 is at  -3.079455 -0.958029 -3.648001
      ESP Fit Center  366 is at  -3.559455 -1.789413 -3.648001
      ESP Fit Center  367 is at  -3.079455 -2.620798 -3.648001
      ESP Fit Center  368 is at  -2.119455 -2.620798 -3.648001
      ESP Fit Center  369 is at  -2.599455 -1.789413 -3.905232
      ESP Fit Center  370 is at  -3.101559 -3.071296  1.398728
      ESP Fit Center  371 is at  -2.141559 -3.071296  1.398728
      ESP Fit Center  372 is at  -4.284328 -2.239911  0.695959
      ESP Fit Center  373 is at  -3.966767 -3.217262  0.695959
      ESP Fit Center  374 is at  -3.135383 -3.821298  0.695959
      ESP Fit Center  375 is at  -2.107735 -3.821298  0.695959
      ESP Fit Center  376 is at  -1.276351 -3.217262  0.695959
      ESP Fit Center  377 is at  -4.284328 -3.199911 -0.264041
      ESP Fit Center  378 is at  -3.581559 -3.902680 -0.264041
      ESP Fit Center  379 is at  -2.621559 -4.159911 -0.264041
      ESP Fit Center  380 is at  -1.661559 -3.902680 -0.264041
      ESP Fit Center  381 is at  -0.958790 -3.199911 -0.264041
      ESP Fit Center  382 is at  -3.135383 -3.821298 -1.224041
      ESP Fit Center  383 is at  -2.107735 -3.821298 -1.224041
      ESP Fit Center  384 is at   0.683995  3.358419 -2.007156
      ESP Fit Center  385 is at  -0.147389  3.962455 -2.007156
      ESP Fit Center  386 is at  -1.175037  3.962455 -2.007156
      ESP Fit Center  387 is at  -2.006421  3.358419 -2.007156
      ESP Fit Center  388 is at  -2.323982  2.381068 -2.007156
      ESP Fit Center  389 is at   0.298787  2.381068 -2.709925
      ESP Fit Center  390 is at  -0.181213  3.212453 -2.709925
      ESP Fit Center  391 is at  -1.141213  3.212453 -2.709925
      ESP Fit Center  392 is at  -1.621213  2.381068 -2.709925
      ESP Fit Center  393 is at  -0.661213  2.381068 -2.967156
      ESP Fit Center  394 is at  -1.473014  2.760632  2.418687
      ESP Fit Center  395 is at  -0.993014  3.592017  2.161455
      ESP Fit Center  396 is at  -1.953014  3.592017  2.161455
      ESP Fit Center  397 is at  -0.959190  4.342019  1.458687
      ESP Fit Center  398 is at  -1.986837  4.342019  1.458687
      ESP Fit Center  399 is at  -2.818222  3.737983  1.458687
      ESP Fit Center  400 is at  -1.473014  4.680632  0.498687
      ESP Fit Center  401 is at  -2.433014  4.423401  0.498687
      ESP Fit Center  402 is at  -3.135782  3.720632  0.498687
      ESP Fit Center  403 is at  -3.393014  2.760632  0.498687
      ESP Fit Center  404 is at  -1.986837  4.342019 -0.461313
      ESP Fit Center  405 is at  -2.818222  3.737983 -0.461313
      ESP Fit Center  406 is at  -3.135782  2.760632 -0.461313
      ESP Fit Center  407 is at  -2.818222  1.783281 -0.461313
      ESP Fit Center  408 is at   1.196884  3.183279  1.907853
      ESP Fit Center  409 is at   0.716884  4.014664  1.907853
      ESP Fit Center  410 is at  -0.243116  4.014664  1.907853
      ESP Fit Center  411 is at   1.899653  3.183279  1.205084
      ESP Fit Center  412 is at   1.582092  4.160630  1.205084
      ESP Fit Center  413 is at   0.750708  4.764667  1.205084
      ESP Fit Center  414 is at  -0.276940  4.764667  1.205084
      ESP Fit Center  415 is at   1.899653  4.143279  0.245084
      ESP Fit Center  416 is at   1.196884  4.846048  0.245084
      ESP Fit Center  417 is at   0.236884  5.103279  0.245084
      ESP Fit Center  418 is at  -0.723116  4.846048  0.245084
      ESP Fit Center  419 is at   1.582092  4.160630 -0.714916
      ESP Fit Center  420 is at   0.750708  4.764667 -0.714916
      ESP Fit Center  421 is at  -0.276940  4.764667 -0.714916
      ESP Fit Center  422 is at   0.716884  4.014664 -1.417685
[...]
  417 Fit      -0.006454
  418 Fit      -0.005464
  419 Fit      -0.030547
  420 Fit      -0.016250
  421 Fit      -0.011632
  422 Fit      -0.030342
  423 Fit       0.009279
  424 Fit       0.006172
  425 Fit       0.001311
  426 Fit       0.010562
  427 Fit       0.003816
  428 Fit      -0.001447
  429 Fit      -0.008587
  430 Fit       0.009042
  431 Fit       0.006880
  432 Fit       0.001048
  433 Fit      -0.004344
  434 Fit       0.005134
  435 Fit       0.003950
  436 Fit      -0.001378
  437 Fit       0.001812
  438 Fit      -0.018201
  439 Fit      -0.007398
  440 Fit      -0.015965
  441 Fit      -0.035931
  442 Fit      -0.009069
  443 Fit      -0.018768
  444 Fit      -0.043176
  445 Fit      -0.014126
  446 Fit      -0.027423
  447 Fit      -0.047243
  448 Fit      -0.040271
  449 Fit      -0.012604
  450 Fit      -0.024130
  451 Fit       0.008553
  452 Fit       0.006145
  453 Fit       0.004890
  454 Fit       0.005049
  455 Fit       0.003760
  456 Fit       0.002283
  457 Fit      -0.028083
  458 Fit      -0.007076
  459 Fit       0.000305
  460 Fit       0.001447
  461 Fit      -0.000101
  462 Fit      -0.007671
  463 Fit      -0.021780
  464 Fit      -0.007861
  465 Fit      -0.004305
  466 Fit      -0.013835
  467 Fit       0.021150
  468 Fit       0.017239
  469 Fit       0.014739
  470 Fit       0.023136
  471 Fit       0.017273
  472 Fit       0.013516
  473 Fit       0.011026
  474 Fit       0.017089
  475 Fit       0.012083
  476 Fit       0.009023
  477 Fit       0.003971
  478 Fit       0.002642
  479 Fit      -0.012904
  480 Fit       0.022903
  481 Fit       0.016848
  482 Fit       0.021466
  483 Fit       0.030587
  484 Fit       0.023586
  485 Fit       0.026873
  486 Fit       0.015518
  487 Fit       0.013776
  488 Fit       0.012448
  489 Fit       0.017095
  490 Fit       0.015503
  491 Fit       0.012677
  492 Fit       0.008835
  493 Fit       0.016378
  494 Fit       0.015028
  495 Fit       0.014343
  496 Fit       0.013488
  497 Fit       0.012977
  498 Fit       0.012900
  499 Fit       0.010692
  500 Fit       0.025128
  501 Fit       0.027356
  502 Fit       0.025365
  503 Fit       0.023957
  504 Fit       0.024680
  505 Fit       0.025103
  506 Fit       0.026496
  507 Fit       0.026052
  508 Fit       0.025471
  509 Fit       0.026808
  510 Fit       0.026880
  511 Fit       0.026600
  512 Fit       0.027716
  513 Fit       0.028295
  514 Fit       0.027611
  515 Fit       0.026147
  516 Fit       0.027757
  517 Fit       0.029220
  518 Fit       0.031329
  519 Fit       0.022177
  520 Fit       0.021622
  521 Fit       0.023542
  522 Fit       0.020339
  523 Fit       0.020458
  524 Fit       0.021284
  525 Fit       0.022946
  526 Fit       0.019893
  527 Fit       0.020728
  528 Fit       0.022636
  529 Fit       0.019393
  530 Fit       0.023282
  531 Fit       0.016065
  532 Fit       0.025618
  533 Fit       0.020526
  534 Fit       0.018894
  535 Fit       0.022145
  536 Fit       0.028800
  537 Fit       0.013717
  538 Fit       0.012055
  539 Fit       0.013012
  540 Fit       0.015933
  541 Fit       0.023352
  542 Fit       0.014048
  543 Fit       0.000940
  544 Fit      -0.013516
  545 Fit      -0.009075
  546 Fit      -0.002432
  547 Fit       0.020167
  548 Fit       0.015677
  549 Fit       0.014673
  550 Fit       0.008304
  551 Fit       0.011694
  552 Fit       0.011281
  553 Fit       0.000049
  554 Fit      -0.010456
  555 Fit       0.002179
  556 Fit       0.006829
  557 Fit       0.008493
  558 Fit       0.002393
  559 Fit      -0.001229
  560 Fit      -0.003558
  561 Fit      -0.009140
  562 Fit      -0.005262
  563 Fit       0.002534
  564 Fit      -0.024218
  565 Fit      -0.016828
  566 Fit       0.007431
  567 Fit      -0.008301
  568 Fit       0.002623
  569 Fit      -0.004618
  570 Fit      -0.001400
  571 Fit      -0.004363
  572 Fit      -0.034801
  573 Fit      -0.021350
  574 Fit       0.017249
  575 Fit       0.014593
  576 Fit       0.018372
  577 Fit       0.011329
  578 Fit       0.019513
  579 Fit       0.016560
  580 Fit       0.023373
  581 Fit       0.019028
  582 Fit       0.015582
  583 Fit       0.021878
  584 Fit       0.022709
  585 Fit       0.022434
  586 Fit       0.022012
  587 Fit       0.023246
  588 Fit       0.024192
  589 Fit       0.023046
  590 Fit       0.024565
  591 Fit       0.016865
  592 Fit      -0.004866
  593 Fit      -0.020154
  594 Fit      -0.028479
  595 Fit      -0.052285
  596 Fit      -0.061114
  597 Fit      -0.053499
  598 Fit      -0.039164
  599 Fit      -0.029250
  600 Fit      -0.020425
  601 Fit      -0.024428
  602 Fit      -0.034697
  603 Fit      -0.042296
  604 Fit      -0.048339
  605 Fit      -0.048484
  606 Fit      -0.039995
  607 Fit      -0.032856
  608 Fit      -0.033494
  609 Fit      -0.041388
  610 Fit      -0.042729
  611 Fit      -0.026652
  612 Fit      -0.031027
  613 Fit      -0.028433
  614 Fit      -0.039057
  615 Fit      -0.040304
  616 Fit      -0.036807
  617 Fit      -0.043798
  618 Fit      -0.046029
  619 Fit      -0.045209
  620 Fit      -0.040935
  621 Fit      -0.047945
  622 Fit      -0.049856
  623 Fit      -0.049395
  624 Fit      -0.048576
  625 Fit      -0.052249
  626 Fit      -0.054385
  627 Fit      -0.064085
  628 Fit      -0.048525
  629 Fit      -0.055708
  630 Fit       0.022887
  631 Fit       0.022274
  632 Fit       0.021731
  633 Fit       0.016552
  634 Fit       0.017433
  635 Fit       0.017607
  636 Fit       0.017078
  637 Fit       0.016510
  638 Fit       0.008305
  639 Fit       0.011599
  640 Fit       0.012984
  641 Fit       0.012928
  642 Fit       0.004906
  643 Fit       0.008303
  644 Fit       0.010585
  645 Fit       0.008256
  646 Fit       0.003233
  647 Fit       0.006528
  648 Fit       0.008150
  649 Fit       0.008180
  650 Fit       0.006287
  651 Fit       0.000982
  652 Fit      -0.012157
  653 Fit      -0.020298
  654 Fit      -0.023177
  655 Fit      -0.005470
  656 Fit       0.002696
  657 Fit       0.003385
  658 Fit      -0.003385
  659 Fit      -0.005310
  660 Fit       0.026380
  661 Fit       0.025831
  662 Fit       0.023646
  663 Fit       0.021465
  664 Fit       0.020873
  665 Fit       0.021109
  666 Fit       0.017221
  667 Fit       0.016618
  668 Fit       0.016055
  669 Fit       0.015645
  670 Fit       0.012132
  671 Fit      -0.044596
  672 Fit      -0.023675
  673 Fit      -0.014077
  674 Fit      -0.009355
  675 Fit      -0.007340
  676 Fit      -0.009053
  677 Fit      -0.046506
  678 Fit      -0.026804
  679 Fit      -0.016731
  680 Fit      -0.018592
  681 Fit      -0.030646
  682 Fit       0.016725
  683 Fit       0.010739
  684 Fit       0.003487
  685 Fit       0.008358
  686 Fit       0.014761
  687 Fit       0.001106
  688 Fit       0.005583
  689 Fit       0.010555
  690 Fit      -0.000687
  691 Fit       0.003524
  692 Fit       0.008021
  693 Fit       0.002294
  694 Fit       0.000907
  695 Fit      -0.014110
  696 Fit      -0.008590
  697 Fit      -0.004115
  698 Fit      -0.001996
  699 Fit      -0.022646
  700 Fit      -0.012155
  701 Fit      -0.007446
  702 Fit      -0.005487
  703 Fit      -0.032865
  704 Fit      -0.018034
  705 Fit      -0.012275
  706 Fit      -0.029895
  707 Fit       0.005111
  708 Fit       0.000770
  709 Fit       0.009642
  710 Fit       0.002602
  711 Fit      -0.001787
  712 Fit      -0.007828
  713 Fit       0.007720
  714 Fit       0.005450
  715 Fit      -0.000011
  716 Fit      -0.004655
  717 Fit       0.004222
  718 Fit       0.002713
  719 Fit      -0.015212
  720 Fit      -0.030940
  721 Fit      -0.009742
  722 Fit      -0.018077
  723 Fit      -0.036727
  724 Fit      -0.014826
  725 Fit      -0.027856
  726 Fit      -0.041477
  727 Fit      -0.024609
  728 Fit       0.007741
  729 Fit       0.005672
  730 Fit       0.004502
  731 Fit       0.004034
  732 Fit       0.002821
  733 Fit      -0.018671
  734 Fit      -0.004277
  735 Fit      -0.000099
  736 Fit       0.000226
  737 Fit      -0.001189
  738 Fit      -0.008478
  739 Fit      -0.024033
  740 Fit      -0.009088
  741 Fit      -0.005351
  742 Fit      -0.014919
  743 Fit       0.023309
  744 Fit       0.018642
  745 Fit       0.015152
  746 Fit       0.019663
  747 Fit       0.014482
  748 Fit       0.011493
  749 Fit       0.009933
  750 Fit       0.013381
  751 Fit       0.009425
  752 Fit       0.007343
  753 Fit       0.001676
  754 Fit       0.020866
  755 Fit       0.019342
  756 Fit       0.021705
  757 Fit       0.023123
  758 Fit       0.014299
  759 Fit       0.012018
  760 Fit       0.011384
  761 Fit       0.015763
  762 Fit       0.013702
  763 Fit       0.010686
  764 Fit       0.007587
  765 Fit       0.014308
  766 Fit       0.013017
  767 Fit       0.012161
  768 Fit       0.011876
  769 Fit       0.011166
  770 Fit       0.010971
  771 Fit       0.009264
  772 Fit       0.022412
  773 Fit       0.024281
  774 Fit       0.022620
  775 Fit       0.021603
  776 Fit       0.022317
  777 Fit       0.022662
  778 Fit       0.023688
  779 Fit       0.023517
  780 Fit       0.024980
  781 Fit       0.024514
  782 Fit       0.023802
  783 Fit       0.024242
  784 Fit       0.025052
  785 Fit       0.025601
  786 Fit       0.024327
  787 Fit       0.025379
  788 Fit       0.026484
  789 Fit       0.020412
  790 Fit       0.019460
  791 Fit       0.021442
  792 Fit       0.018224
  793 Fit       0.017732
  794 Fit       0.018403
  795 Fit       0.019717
  796 Fit       0.017042
  797 Fit       0.017721
  798 Fit       0.019389
  799 Fit       0.016029
  800 Fit       0.019152
  801 Fit       0.022825
  802 Fit       0.017594
  803 Fit       0.016099
  804 Fit       0.019594
  805 Fit       0.010219
  806 Fit       0.008854
  807 Fit       0.009949
  808 Fit       0.012380
  809 Fit       0.018105
  810 Fit       0.004720
  811 Fit      -0.007647
  812 Fit      -0.004704
  813 Fit       0.000757
  814 Fit      -0.017728
  815 Fit       0.015584
  816 Fit       0.012137
  817 Fit       0.011638
  818 Fit       0.011099
  819 Fit       0.009664
  820 Fit       0.006676
  821 Fit       0.000745
  822 Fit       0.009607
  823 Fit       0.009450
  824 Fit      -0.012982
  825 Fit      -0.000636
  826 Fit       0.004395
  827 Fit       0.009199
  828 Fit       0.011189
  829 Fit       0.003905
  830 Fit      -0.000236
  831 Fit      -0.002402
  832 Fit      -0.005796
  833 Fit      -0.002445
  834 Fit      -0.017050
  835 Fit      -0.011167
  836 Fit      -0.007320
  837 Fit      -0.004229
  838 Fit      -0.001306
  839 Fit      -0.011959
  840 Fit      -0.014895
  841 Fit       0.004345
  842 Fit      -0.003887
  843 Fit      -0.008706
  844 Fit       0.000859
  845 Fit      -0.000873
  846 Fit      -0.005913
  847 Fit      -0.003099
  848 Fit      -0.008775
  849 Fit      -0.005928
  850 Fit      -0.033513
  851 Fit      -0.021475
  852 Fit       0.016038
  853 Fit       0.013949
  854 Fit       0.016971
  855 Fit       0.008272
  856 Fit       0.011502
  857 Fit       0.018206
  858 Fit       0.015334
  859 Fit       0.020532
  860 Fit       0.016664
  861 Fit       0.014148
  862 Fit       0.011754
  863 Fit       0.008555
  864 Fit       0.019856
  865 Fit       0.020468
  866 Fit       0.020172
  867 Fit       0.019698
  868 Fit       0.020719
  869 Fit       0.021598
  870 Fit       0.019908
  871 Fit       0.021370
  872 Fit       0.022800
  873 Fit       0.020189
  874 Fit       0.024449
  875 Fit       0.020986
  876 Fit      -0.001379
  877 Fit       0.001652
  878 Fit      -0.011706
  879 Fit      -0.012518
  880 Fit      -0.020909
  881 Fit      -0.027029
  882 Fit      -0.044845
  883 Fit      -0.050917
  884 Fit      -0.047439
  885 Fit      -0.037613
  886 Fit      -0.029207
  887 Fit      -0.022352
  888 Fit      -0.024238
  889 Fit      -0.031142
  890 Fit      -0.037309
  891 Fit      -0.041078
  892 Fit      -0.041285
  893 Fit      -0.034286
  894 Fit      -0.028229
  895 Fit      -0.028562
  896 Fit      -0.034987
  897 Fit      -0.036045
  898 Fit      -0.022487
  899 Fit      -0.020737
  900 Fit      -0.029917
  901 Fit      -0.030946
  902 Fit      -0.027915
  903 Fit      -0.034188
  904 Fit      -0.036516
  905 Fit      -0.036189
  906 Fit      -0.037858
  907 Fit      -0.040282
  908 Fit      -0.040325
  909 Fit      -0.038519
  910 Fit      -0.036373
  911 Fit      -0.041318
  912 Fit      -0.043210
  913 Fit      -0.043364
  914 Fit      -0.042615
  915 Fit      -0.045409
  916 Fit      -0.047691
  917 Fit      -0.043704
  918 Fit      -0.048772
  919 Fit       0.021874
  920 Fit       0.021758
  921 Fit       0.017419
  922 Fit       0.017463
  923 Fit       0.017478
  924 Fit       0.017280
  925 Fit       0.017019
  926 Fit       0.010611
  927 Fit       0.012600
  928 Fit       0.013578
  929 Fit       0.013766
  930 Fit       0.013534
  931 Fit       0.003820
  932 Fit       0.008001
  933 Fit       0.009822
  934 Fit       0.010308
  935 Fit       0.008925
  936 Fit       0.007588
  937 Fit       0.004708
  938 Fit      -0.001370
  939 Fit       0.004124
  940 Fit       0.005896
  941 Fit       0.005882
  942 Fit       0.003951
  943 Fit      -0.001162
  944 Fit      -0.012861
  945 Fit      -0.018385
  946 Fit      -0.020451
  947 Fit      -0.006637
  948 Fit       0.000573
  949 Fit       0.001071
  950 Fit      -0.004981
  951 Fit      -0.006525
  952 Fit       0.025036
  953 Fit       0.024552
  954 Fit       0.023533
  955 Fit       0.020842
  956 Fit       0.020060
  957 Fit       0.020459
  958 Fit       0.018192
  959 Fit       0.017005
  960 Fit       0.016467
  961 Fit       0.016245
  962 Fit       0.016881
  963 Fit       0.013820
  964 Fit       0.013034
  965 Fit       0.012077
  966 Fit       0.010861
  967 Fit      -0.040485
  968 Fit      -0.023414
  969 Fit      -0.014752
  970 Fit      -0.010461
  971 Fit      -0.009100
  972 Fit      -0.012569
  973 Fit      -0.042687
  974 Fit      -0.026534
  975 Fit      -0.017905
  976 Fit      -0.019970
  977 Fit      -0.030222
  978 Fit       0.016404
  979 Fit       0.010905
  980 Fit       0.004534
  981 Fit       0.008690
  982 Fit       0.014761
  983 Fit       0.001393
  984 Fit       0.005163
  985 Fit       0.009555
  986 Fit       0.001576
  987 Fit       0.005431
  988 Fit       0.010098
  989 Fit       0.001220
  990 Fit       0.003714
  991 Fit       0.001801
  992 Fit      -0.008126
  993 Fit      -0.005984
  994 Fit      -0.002914
  995 Fit      -0.000825
  996 Fit      -0.017373
  997 Fit      -0.010006
  998 Fit      -0.006008
  999 Fit      -0.003857
 1000 Fit      -0.029751
 1001 Fit      -0.016982
 1002 Fit      -0.010895
 1003 Fit      -0.007885
 1004 Fit      -0.035173
 1005 Fit      -0.020345
 1006 Fit       0.004849
 1007 Fit       0.001605
 1008 Fit       0.009145
 1009 Fit       0.002523
 1010 Fit      -0.001083
 1011 Fit      -0.005520
 1012 Fit       0.007901
 1013 Fit       0.005226
 1014 Fit       0.000379
 1015 Fit      -0.003358
 1016 Fit      -0.009058
 1017 Fit       0.006245
 1018 Fit       0.004538
 1019 Fit       0.002828
 1020 Fit      -0.001751
 1021 Fit      -0.005921
 1022 Fit       0.002403
 1023 Fit       0.000813
 1024 Fit      -0.013712
 1025 Fit      -0.025911
 1026 Fit      -0.008346
 1027 Fit      -0.014754
 1028 Fit      -0.026868
 1029 Fit      -0.011055
 1030 Fit      -0.018529
 1031 Fit      -0.033693
 1032 Fit      -0.015993
 1033 Fit      -0.026948
 1034 Fit      -0.038658
 1035 Fit      -0.024446
 1036 Fit       0.005858
 1037 Fit       0.004562
 1038 Fit       0.003301
 1039 Fit       0.000511
 1040 Fit       0.002062
 1041 Fit       0.001952
 1042 Fit       0.001045
 1043 Fit      -0.021509
 1044 Fit      -0.007008
 1045 Fit      -0.002417
 1046 Fit      -0.001717
 1047 Fit      -0.002898
 1048 Fit      -0.009775
 1049 Fit      -0.023838
 1050 Fit      -0.010691
 1051 Fit      -0.007010
 1052 Fit      -0.015530
 1053 Fit       0.018018
 1054 Fit       0.017080
 1055 Fit       0.013338
 1056 Fit       0.011244
 1057 Fit       0.015188
 1058 Fit       0.011076
 1059 Fit       0.008830
 1060 Fit       0.009621
 1061 Fit       0.006514
 1062 Fit       0.005081
 1063 Fit      -0.002393
 1064 Fit       0.019173
 1065 Fit       0.017800
 1066 Fit       0.020050
 1067 Fit       0.021739
 1068 Fit       0.013347
 1069 Fit       0.011004
 1070 Fit       0.011078
 1071 Fit       0.014593
 1072 Fit       0.012463
 1073 Fit       0.009499
 1074 Fit       0.007463
 1075 Fit       0.013387
 1076 Fit       0.011913
 1077 Fit       0.010878
 1078 Fit       0.011240
 1079 Fit       0.010425
 1080 Fit       0.009883
 1081 Fit       0.009725
 1082 Fit       0.008919
 1083 Fit       0.020245
 1084 Fit       0.021443
 1085 Fit       0.020281
 1086 Fit       0.019686
 1087 Fit       0.020247
 1088 Fit       0.020595
 1089 Fit       0.021234
 1090 Fit       0.021105
 1091 Fit       0.021725
 1092 Fit       0.021468
 1093 Fit       0.022417
 1094 Fit       0.022997
 1095 Fit       0.021890
 1096 Fit       0.022407
 1097 Fit       0.022974
 1098 Fit       0.021919
 1099 Fit       0.022619
 1100 Fit       0.023604
 1101 Fit       0.024971
 1102 Fit       0.018045
 1103 Fit       0.016941
 1104 Fit       0.016143
 1105 Fit       0.016752
 1106 Fit       0.018121
 1107 Fit       0.015072
 1108 Fit       0.015715
 1109 Fit       0.016947
 1110 Fit       0.019070
 1111 Fit       0.014671
 1112 Fit       0.016425
 1113 Fit       0.019514
 1114 Fit       0.013441
 1115 Fit       0.017688
 1116 Fit       0.020586
 1117 Fit       0.016172
 1118 Fit       0.014845
 1119 Fit       0.018041
 1120 Fit       0.010276
 1121 Fit       0.008780
 1122 Fit       0.009715
 1123 Fit       0.012243
 1124 Fit       0.017172
 -----------------------------------------------------------------
 Leave Link  602 at Mon Feb 26 23:17:26 2018, MaxMem=   33554432 cpu:       0.6

 Test job not archived.
 1\1\GINC-NODE029\SP\RHF\6-31G(d)\C8H16N2O2\WULSDORT\26-Feb-2018\0\\#HF
 /6-31G* Geom=AllCheck Guess=Read Pop=(MK,ReadRadii) Integral=(Grid=Ult
 raFine) iop(6/33=2)\\Optimization for frag1-conf1\\0,1\C,0,0.282148015
 ,-1.7546212514,-0.3392765085\C,0,-0.2996434872,-2.7115798593,2.4376381
 358\C,0,0.1910942424,-1.4416244614,-1.8291062809\C,0,0.9044757266,-0.4
 932715314,2.4994847686\C,0,-1.2371501843,-4.9544264708,2.3811076716\C,
 0,-2.4766006817,-3.1623971823,1.2487874723\C,0,-1.2830547226,0.1377600
 189,0.1372896253\C,0,-0.3350041971,-1.2286095926,1.9799570321\N,0,-1.3
 339031943,-3.5368614005,2.0605535738\N,0,-0.5151140181,-1.0366386812,0
 .525850914\O,0,1.0283597901,-2.6367661487,0.0703732258\O,0,0.584280739
 ,-3.0865519291,3.196805425\H,0,0.535014242,-0.4256273703,-2.0543554484
 \H,0,0.8371334229,-2.1530080647,-2.344521533\H,0,-0.8296292851,-1.5439
 388293,-2.2146317126\H,0,1.8064059613,-0.9497812991,2.0874577584\H,0,0
 .8646203618,0.5635830991,2.2119039199\H,0,0.9598700148,-0.5605751182,3
 .5880912864\H,0,-2.1109052954,-5.2773361325,2.9624231793\H,0,-0.332612
 9214,-5.113139428,2.9656200649\H,0,-1.189405463,-5.5541493887,1.462036
 844\H,0,-2.34174993,-3.4272395635,0.1898686996\H,0,-2.681550469,-2.093
 8991841,1.3147819648\H,0,-3.3616857704,-3.6937814847,1.6199813177\H,0,
 -2.2822331762,0.1024374135,0.5901018093\H,0,-1.4092983788,0.1800975206
 ,-0.9436120056\H,0,-0.798517169,1.0687931642,0.4635387563\H,0,-1.22715
 6404,-0.7818192994,2.4405196919\\Version=AM64L-G09RevC.01\State=1-A\HF
 =-570.8883936\RMSD=4.311e-09\Dipole=-1.944873,1.3664964,-1.2569144\Qua
 drupole=-2.9945881,3.8014104,-0.8068223,3.4717867,-2.0289059,-1.039725
 3\PG=C01 [X(C8H16N2O2)]\\@


 WE ARE PERHAPS NOT FAR REMOVED FROM THE TIME WHEN WE SHALL BE ABLE TO SUBMIT
 THE BULK OF CHEMICAL PHENOMENA TO CALCULATION.

            -- JOSEPH LOUIS GAY-LUSSAC
               MEMOIRES DE LA SOCIETE D'ARCUEIL, 2, 207 (1808)
 Job cpu time:  0 days  0 hours  2 minutes 38.0 seconds.
 File lengths (MBytes):  RWF=     29 Int=      0 D2E=      0 Chk=      5 Scr=      1
 Normal termination of Gaussian 09 at Mon Feb 26 23:17:26 2018.
