 Entering Gaussian System, Link 0=g09
 Initial command:
 /home/fb_chem/chemsoft/lx24-amd64/Gaussian_09_C.01_NBO_3.1_64_istanbul-64/g09/l1.exe /local/2426250.1.parallel/Gau-7544.inp -scrdir=/local/2426250.1.parallel/
 Entering Link 1 = /home/fb_chem/chemsoft/lx24-amd64/Gaussian_09_C.01_NBO_3.1_64_istanbul-64/g09/l1.exe PID=      7545.
  
 Copyright (c) 1988,1990,1992,1993,1995,1998,2003,2009,2011,
            Gaussian, Inc.  All Rights Reserved.
  
 This is part of the Gaussian(R) 09 program.  It is based on
 the Gaussian(R) 03 system (copyright 2003, Gaussian, Inc.),
 the Gaussian(R) 98 system (copyright 1998, Gaussian, Inc.),
 the Gaussian(R) 94 system (copyright 1995, Gaussian, Inc.),
 the Gaussian 92(TM) system (copyright 1992, Gaussian, Inc.),
 the Gaussian 90(TM) system (copyright 1990, Gaussian, Inc.),
 the Gaussian 88(TM) system (copyright 1988, Gaussian, Inc.),
 the Gaussian 86(TM) system (copyright 1986, Carnegie Mellon
 University), and the Gaussian 82(TM) system (copyright 1983,
 Carnegie Mellon University). Gaussian is a federally registered
 trademark of Gaussian, Inc.
  
 This software contains proprietary and confidential information,
 including trade secrets, belonging to Gaussian, Inc.
  
 This software is provided under written license and may be
 used, copied, transmitted, or stored only in accord with that
 written license.
  
 The following legend is applicable only to US Government
 contracts under FAR:
  
                    RESTRICTED RIGHTS LEGEND
  
 Use, reproduction and disclosure by the US Government is
 subject to restrictions as set forth in subparagraphs (a)
 and (c) of the Commercial Computer Software - Restricted
 Rights clause in FAR 52.227-19.
  
 Gaussian, Inc.
 340 Quinnipiac St., Bldg. 40, Wallingford CT 06492
  
  
 ---------------------------------------------------------------
 Warning -- This program may not be used in any manner that
 competes with the business of Gaussian, Inc. or will provide
 assistance to any competitor of Gaussian, Inc.  The licensee
 of this program is prohibited from giving any competitor of
 Gaussian, Inc. access to this program.  By using this program,
 the user acknowledges that Gaussian, Inc. is engaged in the
 business of creating and licensing software in the field of
 computational chemistry and represents and warrants to the
 licensee that it is not a competitor of Gaussian, Inc. and that
 it will not use this program in any manner prohibited above.
 ---------------------------------------------------------------
  

 Cite this work as:
 Gaussian 09, Revision C.01,
 M. J. Frisch, G. W. Trucks, H. B. Schlegel, G. E. Scuseria, 
 M. A. Robb, J. R. Cheeseman, G. Scalmani, V. Barone, B. Mennucci, 
 G. A. Petersson, H. Nakatsuji, M. Caricato, X. Li, H. P. Hratchian, 
 A. F. Izmaylov, J. Bloino, G. Zheng, J. L. Sonnenberg, M. Hada, 
 M. Ehara, K. Toyota, R. Fukuda, J. Hasegawa, M. Ishida, T. Nakajima, 
 Y. Honda, O. Kitao, H. Nakai, T. Vreven, J. A. Montgomery, Jr., 
 J. E. Peralta, F. Ogliaro, M. Bearpark, J. J. Heyd, E. Brothers, 
 K. N. Kudin, V. N. Staroverov, T. Keith, R. Kobayashi, J. Normand, 
 K. Raghavachari, A. Rendell, J. C. Burant, S. S. Iyengar, J. Tomasi, 
 M. Cossi, N. Rega, J. M. Millam, M. Klene, J. E. Knox, J. B. Cross, 
 V. Bakken, C. Adamo, J. Jaramillo, R. Gomperts, R. E. Stratmann, 
 O. Yazyev, A. J. Austin, R. Cammi, C. Pomelli, J. W. Ochterski, 
 R. L. Martin, K. Morokuma, V. G. Zakrzewski, G. A. Voth, 
 P. Salvador, J. J. Dannenberg, S. Dapprich, A. D. Daniels, 
 O. Farkas, J. B. Foresman, J. V. Ortiz, J. Cioslowski, 
 and D. J. Fox, Gaussian, Inc., Wallingford CT, 2010.
 
 ******************************************
 Gaussian 09:  AM64L-G09RevC.01 23-Sep-2011
                26-Feb-2018 
 ******************************************
 %nprocs=4
 Will use up to    4 processors via shared memory.
 %chk=frag1-conf1.chk
 ---------------------------------------------------------
 #B3LYP/6-31G* Integral=(Grid=UltraFine) freq Opt pop=none
 ---------------------------------------------------------
 1/14=-1,18=20,19=15,26=3,38=1/1,3;
 2/9=110,12=2,17=6,18=5,40=1/2;
 3/5=1,6=6,7=1,11=2,16=1,25=1,30=1,71=1,74=-5,75=-5/1,2,3;
 4//1;
 5/5=2,38=5/2;
 7//1,2,3,16;
 1/14=-1,18=20,19=15/3(2);
 2/9=110/2;
 99//99;
 2/9=110/2;
 3/5=1,6=6,7=1,11=2,16=1,25=1,30=1,71=1,74=-5,75=-5/1,2,3;
 4/5=5,16=3/1;
 5/5=2,38=5/2;
 7//1,2,3,16;
 1/14=-1,18=20,19=15/3(-5);
 2/9=110/2;
 99/9=1/99;
 ----------------------------
 Optimization for frag1-conf1
 ----------------------------
 Charge =  0 Multiplicity = 1
 Symbolic Z-Matrix:
 C                     0.40487  -1.69892  -0.3521 
 C                    -0.32186  -2.71827   2.45603 
 C                     0.30579  -1.37769  -1.82211 
 C                     0.93279  -0.49018   2.46867 
 C                    -1.29633  -4.97799   2.34623 
 C                    -2.55611  -3.10881   1.34371 
 C                    -1.36519   0.02115   0.07726 
 C                    -0.30983  -1.23371   1.97213 
 N                    -1.36686  -3.55184   2.0583 
 N                    -0.48427  -1.06277   0.5085 
 O                     1.24005  -2.51434   0.048 
 O                     0.53138  -3.12923   3.25521 
 H                     0.4428   -0.30604  -1.98838 
 H                     1.09362  -1.90997  -2.36376 
 H                    -0.6616   -1.70443  -2.21236 
 H                     1.85489  -0.93137   2.0763 
 H                     0.90836   0.56081   2.16185 
 H                     0.99378  -0.52088   3.56192 
 H                    -2.09426  -5.23284   3.04983 
 H                    -0.33489  -5.2652    2.77911 
 H                    -1.43976  -5.53224   1.41375 
 H                    -2.39118  -3.24446   0.27145 
 H                    -2.78472  -2.06562   1.5602 
 H                    -3.41436  -3.71162   1.65655 
 H                    -2.27061   0.03345   0.68948 
 H                    -1.66211  -0.08858  -0.9671 
 H                    -0.82999   0.96754   0.19723 
 H                    -1.1762   -0.77095   2.46278 
 

 GradGradGradGradGradGradGradGradGradGradGradGradGradGradGradGradGradGrad
 Berny optimization.
 Initialization pass.
                           ----------------------------
                           !    Initial Parameters    !
                           ! (Angstroms and Degrees)  !
 --------------------------                            --------------------------
 ! Name  Definition              Value          Derivative Info.                !
 --------------------------------------------------------------------------------
 ! R1    R(1,3)                  1.508          estimate D2E/DX2                !
 ! R2    R(1,10)                 1.3914         estimate D2E/DX2                !
 ! R3    R(1,11)                 1.2339         estimate D2E/DX2                !
 ! R4    R(2,8)                  1.5615         estimate D2E/DX2                !
 ! R5    R(2,9)                  1.3946         estimate D2E/DX2                !
 ! R6    R(2,12)                 1.2392         estimate D2E/DX2                !
 ! R7    R(3,13)                 1.0931         estimate D2E/DX2                !
 ! R8    R(3,14)                 1.0943         estimate D2E/DX2                !
 ! R9    R(3,15)                 1.0931         estimate D2E/DX2                !
 ! R10   R(4,8)                  1.5308         estimate D2E/DX2                !
 ! R11   R(4,16)                 1.0949         estimate D2E/DX2                !
 ! R12   R(4,17)                 1.0951         estimate D2E/DX2                !
 ! R13   R(4,18)                 1.0954         estimate D2E/DX2                !
 ! R14   R(5,9)                  1.4566         estimate D2E/DX2                !
 ! R15   R(5,19)                 1.0939         estimate D2E/DX2                !
 ! R16   R(5,20)                 1.0928         estimate D2E/DX2                !
 ! R17   R(5,21)                 1.0942         estimate D2E/DX2                !
 ! R18   R(6,9)                  1.4564         estimate D2E/DX2                !
 ! R19   R(6,22)                 1.0933         estimate D2E/DX2                !
 ! R20   R(6,23)                 1.0897         estimate D2E/DX2                !
 ! R21   R(6,24)                 1.0945         estimate D2E/DX2                !
 ! R22   R(7,10)                 1.4618         estimate D2E/DX2                !
 ! R23   R(7,25)                 1.0931         estimate D2E/DX2                !
 ! R24   R(7,26)                 1.0913         estimate D2E/DX2                !
 ! R25   R(7,27)                 1.0938         estimate D2E/DX2                !
 ! R26   R(8,10)                 1.4839         estimate D2E/DX2                !
 ! R27   R(8,28)                 1.0979         estimate D2E/DX2                !
 ! A1    A(3,1,10)             117.6181         estimate D2E/DX2                !
 ! A2    A(3,1,11)             120.089          estimate D2E/DX2                !
 ! A3    A(10,1,11)            122.2851         estimate D2E/DX2                !
 ! A4    A(8,2,9)              119.0545         estimate D2E/DX2                !
 ! A5    A(8,2,12)             120.6538         estimate D2E/DX2                !
 ! A6    A(9,2,12)             120.108          estimate D2E/DX2                !
 ! A7    A(1,3,13)             110.4192         estimate D2E/DX2                !
 ! A8    A(1,3,14)             109.3665         estimate D2E/DX2                !
 ! A9    A(1,3,15)             110.0289         estimate D2E/DX2                !
 ! A10   A(13,3,14)            108.1414         estimate D2E/DX2                !
 ! A11   A(13,3,15)            110.4668         estimate D2E/DX2                !
 ! A12   A(14,3,15)            108.3641         estimate D2E/DX2                !
 ! A13   A(8,4,16)             111.818          estimate D2E/DX2                !
 ! A14   A(8,4,17)             110.925          estimate D2E/DX2                !
 ! A15   A(8,4,18)             110.8124         estimate D2E/DX2                !
 ! A16   A(16,4,17)            107.7631         estimate D2E/DX2                !
 ! A17   A(16,4,18)            107.4261         estimate D2E/DX2                !
 ! A18   A(17,4,18)            107.9235         estimate D2E/DX2                !
 ! A19   A(9,5,19)             108.6577         estimate D2E/DX2                !
 ! A20   A(9,5,20)             112.2231         estimate D2E/DX2                !
 ! A21   A(9,5,21)             108.7316         estimate D2E/DX2                !
 ! A22   A(19,5,20)            109.0092         estimate D2E/DX2                !
 ! A23   A(19,5,21)            109.5423         estimate D2E/DX2                !
 ! A24   A(20,5,21)            108.6487         estimate D2E/DX2                !
 ! A25   A(9,6,22)             108.6795         estimate D2E/DX2                !
 ! A26   A(9,6,23)             111.4104         estimate D2E/DX2                !
 ! A27   A(9,6,24)             109.4225         estimate D2E/DX2                !
 ! A28   A(22,6,23)            110.1986         estimate D2E/DX2                !
 ! A29   A(22,6,24)            109.286          estimate D2E/DX2                !
 ! A30   A(23,6,24)            107.8174         estimate D2E/DX2                !
 ! A31   A(10,7,25)            110.0164         estimate D2E/DX2                !
 ! A32   A(10,7,26)            111.8222         estimate D2E/DX2                !
 ! A33   A(10,7,27)            108.3205         estimate D2E/DX2                !
 ! A34   A(25,7,26)            108.1657         estimate D2E/DX2                !
 ! A35   A(25,7,27)            109.5194         estimate D2E/DX2                !
 ! A36   A(26,7,27)            108.9717         estimate D2E/DX2                !
 ! A37   A(2,8,4)              111.5622         estimate D2E/DX2                !
 ! A38   A(2,8,10)             114.4747         estimate D2E/DX2                !
 ! A39   A(2,8,28)             104.8419         estimate D2E/DX2                !
 ! A40   A(4,8,10)             111.0634         estimate D2E/DX2                !
 ! A41   A(4,8,28)             106.9094         estimate D2E/DX2                !
 ! A42   A(10,8,28)            107.4253         estimate D2E/DX2                !
 ! A43   A(2,9,5)              119.5069         estimate D2E/DX2                !
 ! A44   A(2,9,6)              124.7463         estimate D2E/DX2                !
 ! A45   A(5,9,6)              115.7433         estimate D2E/DX2                !
 ! A46   A(1,10,7)             122.7965         estimate D2E/DX2                !
 ! A47   A(1,10,8)             118.8353         estimate D2E/DX2                !
 ! A48   A(7,10,8)             116.5672         estimate D2E/DX2                !
 ! D1    D(10,1,3,13)           58.344          estimate D2E/DX2                !
 ! D2    D(10,1,3,14)          177.2269         estimate D2E/DX2                !
 ! D3    D(10,1,3,15)          -63.8534         estimate D2E/DX2                !
 ! D4    D(11,1,3,13)         -122.6484         estimate D2E/DX2                !
 ! D5    D(11,1,3,14)           -3.7655         estimate D2E/DX2                !
 ! D6    D(11,1,3,15)          115.1542         estimate D2E/DX2                !
 ! D7    D(3,1,10,7)            -8.7086         estimate D2E/DX2                !
 ! D8    D(3,1,10,8)          -172.8895         estimate D2E/DX2                !
 ! D9    D(11,1,10,7)          172.3071         estimate D2E/DX2                !
 ! D10   D(11,1,10,8)            8.1262         estimate D2E/DX2                !
 ! D11   D(9,2,8,4)           -178.0956         estimate D2E/DX2                !
 ! D12   D(9,2,8,10)           -50.9046         estimate D2E/DX2                !
 ! D13   D(9,2,8,28)            66.5475         estimate D2E/DX2                !
 ! D14   D(12,2,8,4)             6.8247         estimate D2E/DX2                !
 ! D15   D(12,2,8,10)          134.0157         estimate D2E/DX2                !
 ! D16   D(12,2,8,28)         -108.5322         estimate D2E/DX2                !
 ! D17   D(8,2,9,5)            171.5579         estimate D2E/DX2                !
 ! D18   D(8,2,9,6)             -7.7349         estimate D2E/DX2                !
 ! D19   D(12,2,9,5)           -13.3349         estimate D2E/DX2                !
 ! D20   D(12,2,9,6)           167.3723         estimate D2E/DX2                !
 ! D21   D(16,4,8,2)            62.2412         estimate D2E/DX2                !
 ! D22   D(16,4,8,10)          -66.776          estimate D2E/DX2                !
 ! D23   D(16,4,8,28)          176.3207         estimate D2E/DX2                !
 ! D24   D(17,4,8,2)          -177.4343         estimate D2E/DX2                !
 ! D25   D(17,4,8,10)           53.5486         estimate D2E/DX2                !
 ! D26   D(17,4,8,28)          -63.3547         estimate D2E/DX2                !
 ! D27   D(18,4,8,2)           -57.5786         estimate D2E/DX2                !
 ! D28   D(18,4,8,10)          173.4043         estimate D2E/DX2                !
 ! D29   D(18,4,8,28)           56.501          estimate D2E/DX2                !
 ! D30   D(19,5,9,2)           114.7181         estimate D2E/DX2                !
 ! D31   D(19,5,9,6)           -65.927          estimate D2E/DX2                !
 ! D32   D(20,5,9,2)            -5.9009         estimate D2E/DX2                !
 ! D33   D(20,5,9,6)           173.454          estimate D2E/DX2                !
 ! D34   D(21,5,9,2)          -126.1184         estimate D2E/DX2                !
 ! D35   D(21,5,9,6)            53.2365         estimate D2E/DX2                !
 ! D36   D(22,6,9,2)            94.2937         estimate D2E/DX2                !
 ! D37   D(22,6,9,5)           -85.023          estimate D2E/DX2                !
 ! D38   D(23,6,9,2)           -27.311          estimate D2E/DX2                !
 ! D39   D(23,6,9,5)           153.3723         estimate D2E/DX2                !
 ! D40   D(24,6,9,2)          -146.4383         estimate D2E/DX2                !
 ! D41   D(24,6,9,5)            34.2449         estimate D2E/DX2                !
 ! D42   D(25,7,10,1)          151.7172         estimate D2E/DX2                !
 ! D43   D(25,7,10,8)          -43.7682         estimate D2E/DX2                !
 ! D44   D(26,7,10,1)           31.4992         estimate D2E/DX2                !
 ! D45   D(26,7,10,8)         -163.9863         estimate D2E/DX2                !
 ! D46   D(27,7,10,1)          -88.5987         estimate D2E/DX2                !
 ! D47   D(27,7,10,8)           75.9159         estimate D2E/DX2                !
 ! D48   D(2,8,10,1)           -56.6861         estimate D2E/DX2                !
 ! D49   D(2,8,10,7)           138.1587         estimate D2E/DX2                !
 ! D50   D(4,8,10,1)            70.7602         estimate D2E/DX2                !
 ! D51   D(4,8,10,7)           -94.3951         estimate D2E/DX2                !
 ! D52   D(28,8,10,1)         -172.6528         estimate D2E/DX2                !
 ! D53   D(28,8,10,7)           22.1919         estimate D2E/DX2                !
 --------------------------------------------------------------------------------
 Trust Radius=3.00D-01 FncErr=1.00D-07 GrdErr=1.00D-06
 Number of steps in this run=    138 maximum allowed number of steps=    168.
 GradGradGradGradGradGradGradGradGradGradGradGradGradGradGradGradGradGrad

                          Input orientation:                          
 ---------------------------------------------------------------------
 Center     Atomic      Atomic             Coordinates (Angstroms)
 Number     Number       Type             X           Y           Z
 ---------------------------------------------------------------------
      1          6           0        0.404874   -1.698917   -0.352098
      2          6           0       -0.321865   -2.718271    2.456031
      3          6           0        0.305791   -1.377688   -1.822114
      4          6           0        0.932788   -0.490184    2.468667
      5          6           0       -1.296333   -4.977986    2.346228
      6          6           0       -2.556105   -3.108807    1.343713
      7          6           0       -1.365185    0.021152    0.077255
      8          6           0       -0.309832   -1.233714    1.972132
      9          7           0       -1.366863   -3.551835    2.058300
     10          7           0       -0.484273   -1.062769    0.508495
     11          8           0        1.240054   -2.514338    0.048003
     12          8           0        0.531375   -3.129226    3.255207
     13          1           0        0.442799   -0.306039   -1.988380
     14          1           0        1.093622   -1.909973   -2.363763
     15          1           0       -0.661603   -1.704426   -2.212359
     16          1           0        1.854889   -0.931367    2.076295
     17          1           0        0.908360    0.560815    2.161855
     18          1           0        0.993780   -0.520878    3.561924
     19          1           0       -2.094260   -5.232841    3.049828
     20          1           0       -0.334892   -5.265196    2.779110
     21          1           0       -1.439758   -5.532235    1.413754
     22          1           0       -2.391177   -3.244458    0.271448
     23          1           0       -2.784717   -2.065625    1.560199
     24          1           0       -3.414362   -3.711623    1.656548
     25          1           0       -2.270615    0.033453    0.689482
     26          1           0       -1.662113   -0.088583   -0.967097
     27          1           0       -0.829989    0.967536    0.197232
     28          1           0       -1.176203   -0.770949    2.462776
 ---------------------------------------------------------------------
                    Distance matrix (angstroms):
                    1          2          3          4          5
     1  C    0.000000
     2  C    3.074544   0.000000
     3  C    1.507963   4.526990   0.000000
     4  C    3.113912   2.557085   4.426239   0.000000
     5  C    4.574644   2.463323   5.736204   5.012419   0.000000
     6  C    3.692013   2.526183   4.605398   4.505007   2.466961
     7  C    2.505213   3.775120   2.890765   3.355741   5.490388
     8  C    2.475735   1.561478   3.846560   1.530846   3.890079
     9  N    3.518860   1.394646   4.752084   3.851039   1.456635
    10  N    1.391362   2.561241   2.480951   2.485597   4.400640
    11  O    1.233904   2.877461   2.379529   3.170367   4.217187
    12  O    3.882582   1.239188   5.375683   2.782861   2.754029
    13  H    2.149178   5.114329   1.093090   4.487680   6.606096
    14  H    2.136753   5.087962   1.094252   5.039251   6.108078
    15  H    2.144288   4.789276   1.093115   5.092001   5.647990
    16  H    2.930661   2.841739   4.218590   1.094928   5.135971
    17  H    3.417579   3.514598   4.471341   1.095139   5.964309
    18  H    4.129668   2.789705   5.495027   1.095387   5.156389
    19  H    5.505215   3.133216   6.660201   5.656285   1.093934
    20  H    4.803131   2.567367   6.057595   4.950164   1.092815
    21  H    4.606000   3.202252   5.547797   5.671340   1.094199
    22  H    3.255059   3.054722   3.891205   4.843815   2.916936
    23  H    3.736957   2.700760   4.632984   4.138499   3.363775
    24  H    4.761534   3.345065   5.602489   5.471282   2.562300
    25  H    3.353242   3.806613   3.864881   3.701552   5.367360
    26  H    2.691437   4.519882   2.503097   4.324266   5.917617
    27  H    2.989419   4.352648   3.296639   3.223625   6.339156
    28  H    3.359233   2.126500   4.574355   2.127607   4.210365
                    6          7          8          9         10
     6  C    0.000000
     7  C    3.580342   0.000000
     8  C    2.992763   2.505797   0.000000
     9  N    1.456437   4.085435   2.549201   0.000000
    10  N    3.029249   1.461800   1.483875   3.062076   0.000000
    11  O    4.055008   3.635497   2.782880   3.451625   2.300524
    12  O    3.631359   4.860165   2.438622   2.283526   3.584161
    13  H    5.286944   2.764545   4.136749   5.494150   2.768843
    14  H    5.338829   3.966554   4.607276   5.320182   3.384874
    15  H    4.266974   2.952115   4.225550   4.706255   2.801110
    16  H    4.973408   3.907983   2.188213   4.152934   2.819032
    17  H    5.112534   3.131421   2.177227   4.701197   2.703525
    18  H    4.921333   4.242809   2.176000   4.125556   3.435362
    19  H    2.763269   6.080476   4.509837   2.082790   5.141977
    20  H    3.412355   6.025529   4.111531   2.126061   4.778953
    21  H    2.669109   5.712434   4.479487   2.083924   4.659246
    22  H    1.093322   3.428495   3.356697   2.082436   2.907274
    23  H    1.089660   2.927256   2.643260   2.113584   2.721000
    24  H    1.094467   4.541685   3.984688   2.092652   4.113378
    25  H    3.222316   1.093058   2.663751   3.942679   2.103682
    26  H    3.906510   1.091275   3.432063   4.608071   2.124552
    27  H    4.572797   1.093834   2.875124   4.916963   2.082918
    28  H    2.936326   2.520684   1.097945   2.816608   2.093595
                   11         12         13         14         15
    11  O    0.000000
    12  O    3.341628   0.000000
    13  H    3.107902   5.955958   0.000000
    14  H    2.490645   5.777156   1.771182   0.000000
    15  H    3.062922   5.774732   1.795928   1.773693   0.000000
    16  H    2.645334   2.823492   4.348174   4.609915   5.032187
    17  H    3.746326   3.867032   4.265282   5.159489   5.170091
    18  H    4.047490   2.666715   5.581721   6.087144   6.122370
    19  H    5.245843   3.370658   7.489565   7.107110   6.495601
    20  H    4.184091   2.353605   6.922933   6.304547   6.140080
    21  H    4.260795   3.612585   6.513959   5.814502   5.329760
    22  H    3.710640   4.178207   4.666107   4.568262   3.395942
    23  H    4.322831   3.873083   5.109346   5.519349   4.343992
    24  H    5.067988   4.296946   6.305648   6.303235   5.155091
    25  H    4.384921   4.943342   3.827377   4.941386   3.745640
    26  H    3.916286   5.646659   2.349672   3.586393   2.272145
    27  H    4.053493   5.290368   2.831763   4.305698   3.601925
    28  H    3.835211   3.017489   4.759213   5.453894   4.795110
                   16         17         18         19         20
    16  H    0.000000
    17  H    1.769136   0.000000
    18  H    1.765531   1.771313   0.000000
    19  H    5.919985   6.585641   5.656927   0.000000
    20  H    4.906237   5.989080   4.988659   1.780368   0.000000
    21  H    5.697513   6.572562   5.970799   1.787386   1.776580
    22  H    5.161099   5.379655   5.450050   3.429464   3.821002
    23  H    4.804044   4.571542   4.546447   3.567490   4.210065
    24  H    5.972522   6.098770   5.765677   2.449082   3.627240
    25  H    4.458016   3.542863   4.383432   5.773750   6.015750
    26  H    4.726714   4.101145   5.268081   6.541088   6.526324
    27  H    3.787517   2.654624   4.106418   6.941208   6.764478
    28  H    3.059840   2.491898   2.445299   4.593031   4.583244
                   21         22         23         24         25
    21  H    0.000000
    22  H    2.728367   0.000000
    23  H    3.721256   1.790363   0.000000
    24  H    2.696783   1.784279   1.764950   0.000000
    25  H    5.673780   3.306658   2.329930   4.033481   0.000000
    26  H    5.945691   3.467719   3.399435   4.804197   1.769018
    27  H    6.640691   4.492629   3.857293   5.541040   1.786120
    28  H    4.882597   3.520841   2.253474   3.782449   2.233690
                   26         27         28
    26  H    0.000000
    27  H    1.778618   0.000000
    28  H    3.530689   2.876611   0.000000
 Stoichiometry    C8H16N2O2
 Framework group  C1[X(C8H16N2O2)]
 Deg. of freedom    78
 Full point group                 C1      NOp   1
 Largest Abelian subgroup         C1      NOp   1
 Largest concise Abelian subgroup C1      NOp   1
                         Standard orientation:                         
 ---------------------------------------------------------------------
 Center     Atomic      Atomic             Coordinates (Angstroms)
 Number     Number       Type             X           Y           Z
 ---------------------------------------------------------------------
      1          6           0       -1.528325   -0.326358   -0.840201
      2          6           0        1.256843    0.654919    0.015809
      3          6           0       -2.720632   -1.225129   -1.051316
      4          6           0       -0.591328    2.386920    0.366695
      5          6           0        2.992253   -0.983234   -0.594736
      6          6           0        1.326870   -1.620984    1.109867
      7          6           0       -1.996552   -0.390760    1.620024
      8          6           0       -0.104292    0.976807    0.710009
      9          7           0        1.824493   -0.606949    0.190458
     10          7           0       -1.169335   -0.028303    0.470591
     11          8           0       -0.897370    0.102343   -1.810062
     12          8           0        1.872171    1.532710   -0.605834
     13          1           0       -3.611087   -0.792584   -0.587809
     14          1           0       -2.911208   -1.329207   -2.123807
     15          1           0       -2.519060   -2.217422   -0.639462
     16          1           0       -0.777370    2.503276   -0.706019
     17          1           0       -1.522655    2.618327    0.894342
     18          1           0        0.153916    3.136697    0.653608
     19          1           0        3.841488   -1.114898    0.082136
     20          1           0        3.247382   -0.229167   -1.343427
     21          1           0        2.782270   -1.927329   -1.106461
     22          1           0        0.655672   -2.289468    0.563995
     23          1           0        0.805003   -1.170905    1.953929
     24          1           0        2.168521   -2.197959    1.505571
     25          1           0       -1.368136   -0.534621    2.502732
     26          1           0       -2.553061   -1.312939    1.444621
     27          1           0       -2.704661    0.422365    1.804089
     28          1           0        0.119451    0.969092    1.784887
 ---------------------------------------------------------------------
 Rotational constants (GHZ):      1.2178571      0.7114921      0.6483572
 Standard basis: 6-31G(d) (6D, 7F)
 There are   212 symmetry adapted basis functions of A   symmetry.
 Integral buffers will be    131072 words long.
 Raffenetti 2 integral format.
 Two-electron integral symmetry is turned on.
   212 basis functions,   400 primitive gaussians,   212 cartesian basis functions
    47 alpha electrons       47 beta electrons
       nuclear repulsion energy       786.6812564219 Hartrees.
 NAtoms=   28 NActive=   28 NUniq=   28 SFac= 1.00D+00 NAtFMM=   60 NAOKFM=F Big=F
 One-electron integrals computed using PRISM.
 NBasis=   212 RedAO= T  NBF=   212
 NBsUse=   212 1.00D-06 NBFU=   212
 Harris functional with IExCor=  402 diagonalized for initial guess.
 ExpMin= 1.61D-01 ExpMax= 5.48D+03 ExpMxC= 8.25D+02 IAcc=3 IRadAn=         5 AccDes= 0.00D+00
 HarFok:  IExCor=  402 AccDes= 0.00D+00 IRadAn=         5 IDoV= 1
 ScaDFX=  1.000000  1.000000  1.000000  1.000000
 FoFCou: FMM=F IPFlag=           0 FMFlag=      100000 FMFlg1=           0
         NFxFlg=           0 DoJE=T BraDBF=F KetDBF=T FulRan=T
         Omega=  0.000000  0.000000  1.000000  0.000000  0.000000 ICntrl=     500 IOpCl=  0
         NMat0=    1 NMatS0=    1 NMatT0=    0 NMatD0=    1 NMtDS0=    0 NMtDT0=    0
         I1Cent=           4 NGrid=           0.
 Petite list used in FoFCou.
 Initial guess orbital symmetries:
       Occupied  (A) (A) (A) (A) (A) (A) (A) (A) (A) (A) (A) (A)
                 (A) (A) (A) (A) (A) (A) (A) (A) (A) (A) (A) (A)
                 (A) (A) (A) (A) (A) (A) (A) (A) (A) (A) (A) (A)
                 (A) (A) (A) (A) (A) (A) (A) (A) (A) (A) (A)
       Virtual   (A) (A) (A) (A) (A) (A) (A) (A) (A) (A) (A) (A)
                 (A) (A) (A) (A) (A) (A) (A) (A) (A) (A) (A) (A)
                 (A) (A) (A) (A) (A) (A) (A) (A) (A) (A) (A) (A)
                 (A) (A) (A) (A) (A) (A) (A) (A) (A) (A) (A) (A)
                 (A) (A) (A) (A) (A) (A) (A) (A) (A) (A) (A) (A)
                 (A) (A) (A) (A) (A) (A) (A) (A) (A) (A) (A) (A)
                 (A) (A) (A) (A) (A) (A) (A) (A) (A) (A) (A) (A)
                 (A) (A) (A) (A) (A) (A) (A) (A) (A) (A) (A) (A)
                 (A) (A) (A) (A) (A) (A) (A) (A) (A) (A) (A) (A)
                 (A) (A) (A) (A) (A) (A) (A) (A) (A) (A) (A) (A)
                 (A) (A) (A) (A) (A) (A) (A) (A) (A) (A) (A) (A)
                 (A) (A) (A) (A) (A) (A) (A) (A) (A) (A) (A) (A)
                 (A) (A) (A) (A) (A) (A) (A) (A) (A) (A) (A) (A)
                 (A) (A) (A) (A) (A) (A) (A) (A) (A)
 The electronic state of the initial guess is 1-A.
 Requested convergence on RMS density matrix=1.00D-08 within 128 cycles.
 Requested convergence on MAX density matrix=1.00D-06.
 Requested convergence on             energy=1.00D-06.
 No special actions if energy rises.
 Integral accuracy reduced to 1.0D-05 until final iterations.
 Initial convergence to 1.0D-05 achieved.  Increase integral accuracy.
 SCF Done:  E(RB3LYP) =  -574.445973607     A.U. after   15 cycles
             Convg  =    0.7720D-08             -V/T =  2.0098
 Calling FoFJK, ICntrl=      2127 FMM=F ISym2X=0 I1Cent= 0 IOpClX= 0 NMat=1 NMatS=1 NMatT=0.
 ***** Axes restored to original set *****
 -------------------------------------------------------------------
 Center     Atomic                   Forces (Hartrees/Bohr)
 Number     Number              X              Y              Z
 -------------------------------------------------------------------
      1        6           0.007438343   -0.009670654    0.012949835
      2        6           0.007256934   -0.019358874    0.014110613
      3        6           0.001555852    0.001366460   -0.004436433
      4        6           0.007518453   -0.001529347    0.005328948
      5        6          -0.001053407    0.002289933    0.000365113
      6        6           0.010106894   -0.004685707   -0.001343694
      7        6           0.009019410   -0.001596573    0.001327273
      8        6           0.003052690   -0.003844492   -0.001174543
      9        7           0.012968112    0.016769578    0.005814422
     10        7          -0.001779865   -0.011969554   -0.001751083
     11        8          -0.010706251    0.008783551    0.002094209
     12        8          -0.012270671    0.011788183   -0.017110237
     13        1          -0.003447847    0.001680989   -0.003872570
     14        1          -0.001249431   -0.000538896    0.004254207
     15        1          -0.002127165    0.003427412   -0.003658576
     16        1          -0.003626799   -0.002197647   -0.000083856
     17        1          -0.003295362    0.000605506   -0.000930110
     18        1          -0.000798726   -0.000998633   -0.001350232
     19        1          -0.001473007   -0.005141892    0.001290946
     20        1          -0.001206353    0.006967436   -0.000807058
     21        1          -0.001702008   -0.003174400   -0.000898356
     22        1          -0.007097315    0.002380516   -0.004898609
     23        1           0.000015717    0.001039071   -0.001115147
     24        1          -0.000239503   -0.000671411    0.000491384
     25        1          -0.000157132    0.000507672    0.000431247
     26        1           0.000520305   -0.000776937    0.000896454
     27        1          -0.004975396    0.007345345   -0.001008149
     28        1          -0.002246473    0.001203367   -0.004915999
 -------------------------------------------------------------------
 Cartesian Forces:  Max     0.019358874 RMS     0.006086888

 GradGradGradGradGradGradGradGradGradGradGradGradGradGradGradGradGradGrad
 Berny optimization.
 Internal  Forces:  Max     0.023393143 RMS     0.004649340
 Search for a local minimum.
 Step number   1 out of a maximum of  138
 All quantities printed in internal units (Hartrees-Bohrs-Radians)
 Mixed Optimization -- RFO/linear search
 Second derivative matrix not updated -- first step.
 ITU=  0
     Eigenvalues ---    0.00230   0.00358   0.00582   0.00661   0.00857
     Eigenvalues ---    0.00874   0.00943   0.00945   0.01131   0.01132
     Eigenvalues ---    0.01169   0.01763   0.01806   0.03800   0.05436
     Eigenvalues ---    0.05452   0.05531   0.06223   0.07272   0.07329
     Eigenvalues ---    0.07361   0.07429   0.07494   0.07630   0.07694
     Eigenvalues ---    0.07740   0.16000   0.16000   0.16000   0.16000
     Eigenvalues ---    0.16000   0.16000   0.16000   0.16000   0.16000
     Eigenvalues ---    0.16000   0.16000   0.16000   0.16000   0.16000
     Eigenvalues ---    0.16000   0.17899   0.19418   0.24074   0.24435
     Eigenvalues ---    0.24928   0.24997   0.24998   0.24999   0.25000
     Eigenvalues ---    0.25000   0.26698   0.29345   0.31556   0.33910
     Eigenvalues ---    0.34130   0.34197   0.34225   0.34249   0.34301
     Eigenvalues ---    0.34326   0.34332   0.34362   0.34373   0.34432
     Eigenvalues ---    0.34455   0.34458   0.34462   0.34489   0.34666
     Eigenvalues ---    0.34852   0.36740   0.37389   0.37414   0.46519
     Eigenvalues ---    0.47083   0.87363   0.89479
 RFO step:  Lambda=-1.12554257D-02 EMin= 2.30000000D-03
 Linear search not attempted -- first point.
 Iteration  1 RMS(Cart)=  0.11542740 RMS(Int)=  0.00281085
 Iteration  2 RMS(Cart)=  0.00477608 RMS(Int)=  0.00026356
 Iteration  3 RMS(Cart)=  0.00000804 RMS(Int)=  0.00026351
 Iteration  4 RMS(Cart)=  0.00000000 RMS(Int)=  0.00026351
 Variable       Old X    -DE/DX   Delta X   Delta X   Delta X     New X
                                 (Linear)    (Quad)   (Total)
    R1        2.84964   0.00913   0.00000   0.02793   0.02793   2.87757
    R2        2.62929  -0.01230   0.00000  -0.02551  -0.02551   2.60379
    R3        2.33174  -0.01237   0.00000  -0.01365  -0.01365   2.31809
    R4        2.95077  -0.00911   0.00000  -0.03274  -0.03274   2.91803
    R5        2.63550  -0.01685   0.00000  -0.03536  -0.03536   2.60014
    R6        2.34173  -0.02339   0.00000  -0.02644  -0.02644   2.31529
    R7        2.06564   0.00180   0.00000   0.00507   0.00507   2.07071
    R8        2.06784  -0.00274   0.00000  -0.00774  -0.00774   2.06010
    R9        2.06569   0.00216   0.00000   0.00608   0.00608   2.07177
   R10        2.89288  -0.00120   0.00000  -0.00395  -0.00395   2.88893
   R11        2.06911  -0.00214   0.00000  -0.00605  -0.00605   2.06306
   R12        2.06951   0.00092   0.00000   0.00259   0.00259   2.07210
   R13        2.06998  -0.00136   0.00000  -0.00386  -0.00386   2.06612
   R14        2.75264  -0.00119   0.00000  -0.00310  -0.00310   2.74954
   R15        2.06723   0.00310   0.00000   0.00874   0.00874   2.07598
   R16        2.06512  -0.00321   0.00000  -0.00902  -0.00902   2.05610
   R17        2.06774   0.00260   0.00000   0.00732   0.00732   2.07506
   R18        2.75227   0.00050   0.00000   0.00131   0.00131   2.75358
   R19        2.06608   0.00344   0.00000   0.00967   0.00967   2.07575
   R20        2.05916   0.00077   0.00000   0.00214   0.00214   2.06130
   R21        2.06824   0.00070   0.00000   0.00197   0.00197   2.07021
   R22        2.76240   0.00092   0.00000   0.00243   0.00243   2.76484
   R23        2.06558   0.00038   0.00000   0.00106   0.00106   2.06664
   R24        2.06221  -0.00092   0.00000  -0.00257  -0.00257   2.05964
   R25        2.06705   0.00381   0.00000   0.01073   0.01073   2.07778
   R26        2.80412  -0.00660   0.00000  -0.01872  -0.01872   2.78540
   R27        2.07481   0.00008   0.00000   0.00024   0.00024   2.07505
    A1        2.05282   0.00063   0.00000   0.00238   0.00236   2.05519
    A2        2.09595   0.00733   0.00000   0.02802   0.02800   2.12395
    A3        2.13428  -0.00797   0.00000  -0.03054  -0.03055   2.10372
    A4        2.07789  -0.00513   0.00000  -0.01817  -0.01874   2.05915
    A5        2.10581  -0.00374   0.00000  -0.01305  -0.01363   2.09217
    A6        2.09628   0.00895   0.00000   0.03591   0.03536   2.13164
    A7        1.92718   0.00550   0.00000   0.03227   0.03222   1.95940
    A8        1.90881  -0.00635   0.00000  -0.03589  -0.03561   1.87319
    A9        1.92037   0.00514   0.00000   0.02863   0.02857   1.94893
   A10        1.88742   0.00106   0.00000   0.00890   0.00919   1.89662
   A11        1.92801  -0.00613   0.00000  -0.03808  -0.03840   1.88961
   A12        1.89131   0.00056   0.00000   0.00296   0.00322   1.89452
   A13        1.95159  -0.00402   0.00000  -0.02406  -0.02421   1.92738
   A14        1.93601  -0.00336   0.00000  -0.01835  -0.01846   1.91754
   A15        1.93404  -0.00028   0.00000  -0.00230  -0.00235   1.93169
   A16        1.88082   0.00412   0.00000   0.02524   0.02505   1.90587
   A17        1.87494   0.00194   0.00000   0.00894   0.00885   1.88379
   A18        1.88362   0.00207   0.00000   0.01328   0.01326   1.89688
   A19        1.89643   0.00775   0.00000   0.04710   0.04693   1.94336
   A20        1.95866  -0.01129   0.00000  -0.06969  -0.06926   1.88941
   A21        1.89773   0.00399   0.00000   0.02510   0.02468   1.92240
   A22        1.90257   0.00070   0.00000   0.00040   0.00107   1.90364
   A23        1.91187  -0.00385   0.00000  -0.01450  -0.01545   1.89642
   A24        1.89628   0.00268   0.00000   0.01187   0.01205   1.90833
   A25        1.89682   0.01252   0.00000   0.07785   0.07765   1.97446
   A26        1.94448  -0.00121   0.00000  -0.00888  -0.00923   1.93524
   A27        1.90978  -0.00289   0.00000  -0.01977  -0.01991   1.88987
   A28        1.92333  -0.00492   0.00000  -0.02335  -0.02372   1.89961
   A29        1.90740  -0.00388   0.00000  -0.01890  -0.01888   1.88852
   A30        1.88177   0.00009   0.00000  -0.00859  -0.00890   1.87287
   A31        1.92015  -0.00172   0.00000  -0.01463  -0.01492   1.90523
   A32        1.95167  -0.00325   0.00000  -0.02060  -0.02093   1.93074
   A33        1.89055   0.01242   0.00000   0.07862   0.07849   1.96904
   A34        1.88785   0.00018   0.00000  -0.01028  -0.01076   1.87709
   A35        1.91147  -0.00473   0.00000  -0.02453  -0.02463   1.88684
   A36        1.90191  -0.00311   0.00000  -0.00955  -0.00970   1.89221
   A37        1.94713  -0.00651   0.00000  -0.03071  -0.03053   1.91660
   A38        1.99796  -0.00119   0.00000  -0.01368  -0.01358   1.98438
   A39        1.82984   0.00390   0.00000   0.03178   0.03184   1.86168
   A40        1.93842   0.00686   0.00000   0.02748   0.02725   1.96567
   A41        1.86592   0.00138   0.00000   0.02377   0.02412   1.89004
   A42        1.87492  -0.00442   0.00000  -0.03620  -0.03634   1.83858
   A43        2.08579  -0.00435   0.00000  -0.01669  -0.01669   2.06909
   A44        2.17723   0.00366   0.00000   0.01399   0.01398   2.19121
   A45        2.02010   0.00069   0.00000   0.00263   0.00263   2.02273
   A46        2.14320   0.00295   0.00000   0.01130   0.01129   2.15449
   A47        2.07407  -0.00461   0.00000  -0.01864  -0.01864   2.05543
   A48        2.03448   0.00165   0.00000   0.00602   0.00601   2.04049
    D1        1.01830  -0.00014   0.00000   0.00836   0.00866   1.02696
    D2        3.09319   0.00056   0.00000   0.01664   0.01670   3.10989
    D3       -1.11445   0.00046   0.00000   0.01560   0.01544  -1.09901
    D4       -2.14062  -0.00042   0.00000  -0.00147  -0.00130  -2.14191
    D5       -0.06572   0.00028   0.00000   0.00682   0.00674  -0.05898
    D6        2.00982   0.00018   0.00000   0.00578   0.00548   2.01530
    D7       -0.15199   0.00028   0.00000   0.00244   0.00254  -0.14945
    D8       -3.01749   0.00016   0.00000   0.00741   0.00751  -3.00998
    D9        3.00733   0.00041   0.00000   0.01186   0.01176   3.01909
   D10        0.14183   0.00028   0.00000   0.01683   0.01673   0.15856
   D11       -3.10835   0.00060   0.00000   0.08416   0.08360  -3.02476
   D12       -0.88845   0.00342   0.00000   0.08392   0.08385  -0.80460
   D13        1.16147  -0.00008   0.00000   0.05303   0.05257   1.21404
   D14        0.11911  -0.00090   0.00000   0.01968   0.01984   0.13896
   D15        2.33901   0.00192   0.00000   0.01944   0.02010   2.35911
   D16       -1.89424  -0.00159   0.00000  -0.01145  -0.01118  -1.90543
   D17        2.99425   0.00128   0.00000   0.02763   0.02710   3.02135
   D18       -0.13500   0.00144   0.00000   0.03471   0.03418  -0.10082
   D19       -0.23274   0.00214   0.00000   0.08930   0.08984  -0.14290
   D20        2.92120   0.00230   0.00000   0.09639   0.09692   3.01812
   D21        1.08631  -0.00127   0.00000  -0.01715  -0.01719   1.06912
   D22       -1.16546   0.00003   0.00000   0.00382   0.00399  -1.16147
   D23        3.07738   0.00083   0.00000   0.01853   0.01831   3.09569
   D24       -3.09681  -0.00106   0.00000  -0.01395  -0.01392  -3.11073
   D25        0.93460   0.00024   0.00000   0.00702   0.00727   0.94187
   D26       -1.10575   0.00104   0.00000   0.02173   0.02159  -1.08416
   D27       -1.00494  -0.00085   0.00000  -0.01086  -0.01089  -1.01583
   D28        3.02648   0.00044   0.00000   0.01011   0.01030   3.03677
   D29        0.98613   0.00125   0.00000   0.02482   0.02461   1.01074
   D30        2.00221  -0.00097   0.00000  -0.00684  -0.00752   1.99469
   D31       -1.15064  -0.00109   0.00000  -0.01321  -0.01382  -1.16447
   D32       -0.10299   0.00009   0.00000   0.00508   0.00525  -0.09774
   D33        3.02734  -0.00003   0.00000  -0.00128  -0.00105   3.02629
   D34       -2.20118   0.00118   0.00000   0.01734   0.01776  -2.18342
   D35        0.92915   0.00106   0.00000   0.01097   0.01146   0.94061
   D36        1.64574   0.00047   0.00000   0.01900   0.01912   1.66485
   D37       -1.48393   0.00066   0.00000   0.02597   0.02615  -1.45778
   D38       -0.47667  -0.00098   0.00000   0.00180   0.00175  -0.47491
   D39        2.67685  -0.00080   0.00000   0.00877   0.00879   2.68564
   D40       -2.55583   0.00151   0.00000   0.03075   0.03059  -2.52525
   D41        0.59769   0.00170   0.00000   0.03772   0.03762   0.63531
   D42        2.64797  -0.00110   0.00000  -0.02184  -0.02166   2.62630
   D43       -0.76390  -0.00191   0.00000  -0.03037  -0.03023  -0.79413
   D44        0.54976   0.00197   0.00000   0.01449   0.01437   0.56414
   D45       -2.86210   0.00116   0.00000   0.00595   0.00580  -2.85630
   D46       -1.54634  -0.00031   0.00000  -0.01248  -0.01248  -1.55882
   D47        1.32498  -0.00112   0.00000  -0.02102  -0.02106   1.30393
   D48       -0.98936   0.00302   0.00000   0.07326   0.07348  -0.91588
   D49        2.41132   0.00262   0.00000   0.07678   0.07696   2.48828
   D50        1.23500  -0.00100   0.00000   0.04336   0.04349   1.27849
   D51       -1.64750  -0.00140   0.00000   0.04687   0.04697  -1.60053
   D52       -3.01336   0.00179   0.00000   0.06559   0.06528  -2.94808
   D53        0.38732   0.00139   0.00000   0.06910   0.06876   0.45608
         Item               Value     Threshold  Converged?
 Maximum Force            0.023393     0.000450     NO 
 RMS     Force            0.004649     0.000300     NO 
 Maximum Displacement     0.366642     0.001800     NO 
 RMS     Displacement     0.116291     0.001200     NO 
 Predicted change in Energy=-6.280419D-03
 GradGradGradGradGradGradGradGradGradGradGradGradGradGradGradGradGradGrad

                          Input orientation:                          
 ---------------------------------------------------------------------
 Center     Atomic      Atomic             Coordinates (Angstroms)
 Number     Number       Type             X           Y           Z
 ---------------------------------------------------------------------
      1          6           0        0.290767   -1.765611   -0.286721
      2          6           0       -0.321696   -2.684209    2.480068
      3          6           0        0.197376   -1.470948   -1.777761
      4          6           0        0.941289   -0.510280    2.505900
      5          6           0       -1.240883   -4.932142    2.319708
      6          6           0       -2.448958   -3.097165    1.194819
      7          6           0       -1.343707    0.082935    0.128627
      8          6           0       -0.323148   -1.212917    2.011343
      9          7           0       -1.315051   -3.512351    2.010357
     10          7           0       -0.529859   -1.053559    0.560666
     11          8           0        1.046036   -2.625812    0.154146
     12          8           0        0.534209   -3.073600    3.265505
     13          1           0        0.414741   -0.421936   -2.008084
     14          1           0        0.934366   -2.098311   -2.279466
     15          1           0       -0.795032   -1.711830   -2.176569
     16          1           0        1.830492   -0.991003    2.093477
     17          1           0        0.926173    0.542707    2.200413
     18          1           0        1.007992   -0.557732    3.596175
     19          1           0       -2.067621   -5.242778    2.973042
     20          1           0       -0.296865   -5.121705    2.826397
     21          1           0       -1.282528   -5.523298    1.395281
     22          1           0       -2.279534   -3.234808    0.118288
     23          1           0       -2.699910   -2.052107    1.381109
     24          1           0       -3.318402   -3.697665    1.483969
     25          1           0       -2.239267    0.141311    0.753580
     26          1           0       -1.670674   -0.049051   -0.902675
     27          1           0       -0.811177    1.041912    0.204149
     28          1           0       -1.190943   -0.733019    2.482925
 ---------------------------------------------------------------------
                    Distance matrix (angstroms):
                    1          2          3          4          5
     1  C    0.000000
     2  C    2.978935   0.000000
     3  C    1.522745   4.457640   0.000000
     4  C    3.130138   2.514312   4.452645   0.000000
     5  C    4.377938   2.433891   5.553172   4.934512   0.000000
     6  C    3.387342   2.519452   4.299291   4.461466   2.468190
     7  C    2.502227   3.772383   2.902379   3.350305   5.473793
     8  C    2.442020   1.544152   3.833385   1.528753   3.843171
     9  N    3.302471   1.375936   4.561207   3.788015   1.454994
    10  N    1.377864   2.527144   2.484216   2.498672   4.317776
    11  O    1.226678   2.698892   2.405452   3.164996   3.903693
    12  O    3.793205   1.225198   5.302498   2.704316   2.738551
    13  H    2.187218   5.079737   1.095774   4.545449   6.466284
    14  H    2.120364   4.957231   1.090158   5.041986   5.823634
    15  H    2.180225   4.780569   1.096333   5.136541   5.548486
    16  H    2.938726   2.765558   4.228936   1.091727   5.001710
    17  H    3.452233   3.471077   4.517945   1.096510   5.889341
    18  H    4.129196   2.745117   5.510921   1.093343   5.081562
    19  H    5.317775   3.136487   6.475110   5.627459   1.098560
    20  H    4.615212   2.462102   5.896658   4.785497   1.088043
    21  H    4.407334   3.187536   5.355358   5.595461   1.098073
    22  H    2.988146   3.116776   3.583475   4.847416   2.967488
    23  H    3.436260   2.695026   4.325560   4.111048   3.362191
    24  H    4.460300   3.316557   5.287519   5.417447   2.557045
    25  H    3.334614   3.826409   3.865786   3.689327   5.402727
    26  H    2.678289   4.495192   2.505430   4.318966   5.866264
    27  H    3.055720   4.393561   3.355535   3.283062   6.352131
    28  H    3.306456   2.136057   4.541522   2.143958   4.202591
                    6          7          8          9         10
     6  C    0.000000
     7  C    3.531484   0.000000
     8  C    2.955701   2.503077   0.000000
     9  N    1.457130   4.058055   2.504250   0.000000
    10  N    2.874268   1.463088   1.473970   2.960369   0.000000
    11  O    3.676976   3.612317   2.705572   3.131485   2.262892
    12  O    3.631471   4.830144   2.402109   2.277644   3.539627
    13  H    5.061245   2.812928   4.162442   5.356371   2.808860
    14  H    4.951287   3.968168   4.558103   5.045985   3.361817
    15  H    4.002609   2.972567   4.243842   4.587226   2.827737
    16  H    4.853575   3.884522   2.166600   4.032188   2.815080
    17  H    5.064721   3.107418   2.163046   4.637100   2.712354
    18  H    4.915865   4.238494   2.170920   4.079353   3.438771
    19  H    2.812676   6.080951   4.495312   2.118372   5.072851
    20  H    3.375249   5.955008   3.992947   2.071869   4.662363
    21  H    2.699419   5.747870   4.458624   2.103161   4.608867
    22  H    1.098440   3.447216   3.391039   2.141771   2.831061
    23  H    1.090792   2.822482   2.598159   2.108578   2.525736
    24  H    1.095510   4.475412   3.927294   2.079626   3.952184
    25  H    3.275117   1.093619   2.662220   3.972772   2.094519
    26  H    3.781032   1.089913   3.414954   4.539457   2.109944
    27  H    4.560232   1.099513   2.930593   4.925200   2.144119
    28  H    2.971700   2.496365   1.098071   2.821951   2.057877
                   11         12         13         14         15
    11  O    0.000000
    12  O    3.184814   0.000000
    13  H    3.151323   5.903925   0.000000
    14  H    2.492628   5.644291   1.775920   0.000000
    15  H    3.107591   5.765195   1.776447   1.775041   0.000000
    16  H    2.654992   2.718678   4.376184   4.599109   5.064214
    17  H    3.773738   3.790216   4.347821   5.200419   5.215694
    18  H    4.015715   2.581358   5.637207   6.074698   6.156900
    19  H    4.948691   3.400057   7.363032   6.818243   6.372250
    20  H    3.895355   2.253493   6.779853   6.060254   6.074956
    21  H    3.918934   3.577610   6.362979   5.490803   5.246241
    22  H    3.381061   4.224702   4.437659   4.167733   3.128830
    23  H    3.983300   3.879939   4.883147   5.158478   4.049866
    24  H    4.686749   4.290214   6.071341   5.899781   4.869340
    25  H    4.336993   4.933315   3.871407   4.928206   3.755758
    26  H    3.890640   5.602065   2.389545   3.589046   2.270328
    27  H    4.111441   5.302774   2.922277   4.367638   3.640217
    28  H    3.742987   3.011130   4.779556   5.390856   4.777625
                   16         17         18         19         20
    16  H    0.000000
    17  H    1.783674   0.000000
    18  H    1.767012   1.779273   0.000000
    19  H    5.834939   6.559847   5.638914   0.000000
    20  H    4.703777   5.828657   4.808852   1.780938   0.000000
    21  H    5.542569   6.505614   5.894681   1.784487   1.783508
    22  H    5.082159   5.374144   5.483636   3.496636   3.850351
    23  H    4.707223   4.533519   4.570362   3.621384   4.157633
    24  H    5.848814   6.042389   5.747894   2.483780   3.599956
    25  H    4.431748   3.503492   4.371922   5.826138   5.980705
    26  H    4.703441   4.089370   5.260576   6.492576   6.444001
    27  H    3.831542   2.693077   4.168223   6.981601   6.717952
    28  H    3.057334   2.487865   2.470904   4.620249   4.491983
                   21         22         23         24         25
    21  H    0.000000
    22  H    2.803911   0.000000
    23  H    3.749445   1.780509   0.000000
    24  H    2.735980   1.777236   1.760958   0.000000
    25  H    5.780565   3.435608   2.327460   4.054102   0.000000
    26  H    5.949675   3.400313   3.207371   4.660844   1.761453
    27  H    6.689017   4.522586   3.811233   5.512505   1.775499
    28  H    4.913057   3.610469   2.287132   3.783268   2.203196
                   26         27         28
    26  H    0.000000
    27  H    1.775949   0.000000
    28  H    3.487154   2.913318   0.000000
 Stoichiometry    C8H16N2O2
 Framework group  C1[X(C8H16N2O2)]
 Deg. of freedom    78
 Full point group                 C1      NOp   1
 Largest Abelian subgroup         C1      NOp   1
 Largest concise Abelian subgroup C1      NOp   1
                         Standard orientation:                         
 ---------------------------------------------------------------------
 Center     Atomic      Atomic             Coordinates (Angstroms)
 Number     Number       Type             X           Y           Z
 ---------------------------------------------------------------------
      1          6           0       -1.391449   -0.416778   -0.826050
      2          6           0        1.255281    0.649817    0.029084
      3          6           0       -2.597762   -1.321639   -1.037676
      4          6           0       -0.501659    2.447988    0.067905
      5          6           0        2.909967   -1.090467   -0.367459
      6          6           0        1.065024   -1.573186    1.199425
      7          6           0       -2.119684   -0.086716    1.544999
      8          6           0       -0.107130    1.076939    0.617139
      9          7           0        1.705898   -0.621423    0.301285
     10          7           0       -1.169152    0.069643    0.443788
     11          8           0       -0.620148   -0.146555   -1.740825
     12          8           0        1.908501    1.444123   -0.636869
     13          1           0       -3.538637   -0.829190   -0.767547
     14          1           0       -2.629570   -1.577879   -2.096815
     15          1           0       -2.515698   -2.247979   -0.457067
     16          1           0       -0.604747    2.408162   -1.018214
     17          1           0       -1.453739    2.766236    0.509035
     18          1           0        0.261518    3.193660    0.306515
     19          1           0        3.726885   -1.254578    0.348465
     20          1           0        3.215570   -0.335149   -1.088527
     21          1           0        2.708064   -2.033628   -0.892291
     22          1           0        0.399084   -2.275514    0.679975
     23          1           0        0.496526   -1.055498    1.973141
     24          1           0        1.847658   -2.151857    1.702185
     25          1           0       -1.571206   -0.120691    2.490526
     26          1           0       -2.667576   -1.024008    1.449033
     27          1           0       -2.846562    0.736355    1.600955
     28          1           0        0.032855    1.167724    1.702460
 ---------------------------------------------------------------------
 Rotational constants (GHZ):      1.2303498      0.7613708      0.6732231
 Standard basis: 6-31G(d) (6D, 7F)
 There are   212 symmetry adapted basis functions of A   symmetry.
 Integral buffers will be    131072 words long.
 Raffenetti 2 integral format.
 Two-electron integral symmetry is turned on.
   212 basis functions,   400 primitive gaussians,   212 cartesian basis functions
    47 alpha electrons       47 beta electrons
       nuclear repulsion energy       797.4417047168 Hartrees.
 NAtoms=   28 NActive=   28 NUniq=   28 SFac= 1.00D+00 NAtFMM=   60 NAOKFM=F Big=F
 One-electron integrals computed using PRISM.
 NBasis=   212 RedAO= T  NBF=   212
 NBsUse=   212 1.00D-06 NBFU=   212
 Initial guess read from the read-write file.
 B after Tr=     0.000000    0.000000    0.000000
         Rot=    1.000000    0.000000    0.000000    0.000000 Ang=   0.00 deg.
 Initial guess orbital symmetries:
       Occupied  (A) (A) (A) (A) (A) (A) (A) (A) (A) (A) (A) (A)
                 (A) (A) (A) (A) (A) (A) (A) (A) (A) (A) (A) (A)
                 (A) (A) (A) (A) (A) (A) (A) (A) (A) (A) (A) (A)
                 (A) (A) (A) (A) (A) (A) (A) (A) (A) (A) (A)
       Virtual   (A) (A) (A) (A) (A) (A) (A) (A) (A) (A) (A) (A)
                 (A) (A) (A) (A) (A) (A) (A) (A) (A) (A) (A) (A)
                 (A) (A) (A) (A) (A) (A) (A) (A) (A) (A) (A) (A)
                 (A) (A) (A) (A) (A) (A) (A) (A) (A) (A) (A) (A)
                 (A) (A) (A) (A) (A) (A) (A) (A) (A) (A) (A) (A)
                 (A) (A) (A) (A) (A) (A) (A) (A) (A) (A) (A) (A)
                 (A) (A) (A) (A) (A) (A) (A) (A) (A) (A) (A) (A)
                 (A) (A) (A) (A) (A) (A) (A) (A) (A) (A) (A) (A)
                 (A) (A) (A) (A) (A) (A) (A) (A) (A) (A) (A) (A)
                 (A) (A) (A) (A) (A) (A) (A) (A) (A) (A) (A) (A)
                 (A) (A) (A) (A) (A) (A) (A) (A) (A) (A) (A) (A)
                 (A) (A) (A) (A) (A) (A) (A) (A) (A) (A) (A) (A)
                 (A) (A) (A) (A) (A) (A) (A) (A) (A) (A) (A) (A)
                 (A) (A) (A) (A) (A) (A) (A) (A) (A)
 Harris functional with IExCor=  402 diagonalized for initial guess.
 ExpMin= 1.61D-01 ExpMax= 5.48D+03 ExpMxC= 8.25D+02 IAcc=3 IRadAn=         5 AccDes= 0.00D+00
 HarFok:  IExCor=  402 AccDes= 0.00D+00 IRadAn=         5 IDoV= 1
 ScaDFX=  1.000000  1.000000  1.000000  1.000000
 FoFCou: FMM=F IPFlag=           0 FMFlag=      100000 FMFlg1=           0
         NFxFlg=           0 DoJE=T BraDBF=F KetDBF=T FulRan=T
         Omega=  0.000000  0.000000  1.000000  0.000000  0.000000 ICntrl=     500 IOpCl=  0
         NMat0=    1 NMatS0=    1 NMatT0=    0 NMatD0=    1 NMtDS0=    0 NMtDT0=    0
         I1Cent=           4 NGrid=           0.
 Petite list used in FoFCou.
 Requested convergence on RMS density matrix=1.00D-08 within 128 cycles.
 Requested convergence on MAX density matrix=1.00D-06.
 Requested convergence on             energy=1.00D-06.
 No special actions if energy rises.
 Integral accuracy reduced to 1.0D-05 until final iterations.
 Initial convergence to 1.0D-05 achieved.  Increase integral accuracy.
 SCF Done:  E(RB3LYP) =  -574.450558732     A.U. after   13 cycles
             Convg  =    0.9013D-08             -V/T =  2.0095
 Calling FoFJK, ICntrl=      2127 FMM=F ISym2X=0 I1Cent= 0 IOpClX= 0 NMat=1 NMatS=1 NMatT=0.
 ***** Axes restored to original set *****
 -------------------------------------------------------------------
 Center     Atomic                   Forces (Hartrees/Bohr)
 Number     Number              X              Y              Z
 -------------------------------------------------------------------
      1        6          -0.000396221   -0.000378303    0.002405982
      2        6           0.003273562   -0.006357984   -0.003703904
      3        6           0.001414730   -0.001025216   -0.000605259
      4        6           0.002058170    0.003207471    0.000349076
      5        6           0.001038467   -0.000608385   -0.000874696
      6        6           0.000828449   -0.001050457    0.004803790
      7        6           0.003074334   -0.003072106    0.000327693
      8        6          -0.001846177    0.001143975    0.002156038
      9        7          -0.003405369    0.002135913    0.000175367
     10        7          -0.000035250    0.005232054   -0.001792704
     11        8           0.001032362    0.000845049   -0.003843262
     12        8          -0.002786319    0.000932054    0.001153039
     13        1          -0.000819521   -0.000003353    0.000210128
     14        1           0.000194935   -0.000603585    0.000041744
     15        1          -0.000156598    0.000822337   -0.000162345
     16        1          -0.000627714   -0.000478321   -0.000053946
     17        1          -0.000085833    0.000111375    0.000174783
     18        1          -0.000486649   -0.000432406   -0.000889817
     19        1          -0.000474306    0.000321719   -0.000266703
     20        1           0.000504713   -0.000100707    0.000477940
     21        1          -0.000292868    0.000130336    0.000285632
     22        1           0.000635701   -0.000532427    0.000220054
     23        1          -0.000758607   -0.000302905   -0.000918626
     24        1          -0.000740516   -0.000507694   -0.000129984
     25        1          -0.000851342    0.000518697    0.000498593
     26        1           0.000047688    0.000094622   -0.000595688
     27        1           0.000238694   -0.000250288    0.000544826
     28        1          -0.000578518    0.000208535    0.000012248
 -------------------------------------------------------------------
 Cartesian Forces:  Max     0.006357984 RMS     0.001647636

 GradGradGradGradGradGradGradGradGradGradGradGradGradGradGradGradGradGrad
 Berny optimization.
 Using GEDIIS/GDIIS optimizer.
 Internal  Forces:  Max     0.007934850 RMS     0.001797280
 Search for a local minimum.
 Step number   2 out of a maximum of  138
 All quantities printed in internal units (Hartrees-Bohrs-Radians)
 Mixed Optimization -- RFO/linear search
 Update second derivatives using D2CorX and points    1    2
 DE= -4.59D-03 DEPred=-6.28D-03 R= 7.30D-01
 SS=  1.41D+00  RLast= 3.40D-01 DXNew= 5.0454D-01 1.0209D+00
 Trust test= 7.30D-01 RLast= 3.40D-01 DXMaxT set to 5.05D-01
 ITU=  1  0
 Use linear search instead of GDIIS.
     Eigenvalues ---    0.00241   0.00358   0.00603   0.00661   0.00872
     Eigenvalues ---    0.00915   0.00943   0.00962   0.01116   0.01134
     Eigenvalues ---    0.01171   0.01803   0.01897   0.03936   0.05319
     Eigenvalues ---    0.05622   0.05655   0.06375   0.06984   0.07075
     Eigenvalues ---    0.07105   0.07420   0.07551   0.07553   0.07684
     Eigenvalues ---    0.07727   0.13979   0.16000   0.16000   0.16000
     Eigenvalues ---    0.16000   0.16000   0.16000   0.16000   0.16000
     Eigenvalues ---    0.16000   0.16000   0.16000   0.16000   0.16000
     Eigenvalues ---    0.16145   0.18242   0.19429   0.24124   0.24267
     Eigenvalues ---    0.24452   0.24994   0.24997   0.24998   0.25000
     Eigenvalues ---    0.26225   0.29191   0.30190   0.31643   0.33907
     Eigenvalues ---    0.34137   0.34219   0.34232   0.34272   0.34284
     Eigenvalues ---    0.34329   0.34344   0.34367   0.34410   0.34424
     Eigenvalues ---    0.34450   0.34457   0.34476   0.34645   0.34827
     Eigenvalues ---    0.34939   0.37024   0.37384   0.37798   0.46402
     Eigenvalues ---    0.47428   0.85392   0.89190
 RFO step:  Lambda=-2.98159036D-03 EMin= 2.41199508D-03
 Quartic linear search produced a step of -0.16897.
 Iteration  1 RMS(Cart)=  0.16289003 RMS(Int)=  0.00913351
 Iteration  2 RMS(Cart)=  0.02925306 RMS(Int)=  0.00065099
 Iteration  3 RMS(Cart)=  0.00046063 RMS(Int)=  0.00062070
 Iteration  4 RMS(Cart)=  0.00000024 RMS(Int)=  0.00062070
 Variable       Old X    -DE/DX   Delta X   Delta X   Delta X     New X
                                 (Linear)    (Quad)   (Total)
    R1        2.87757   0.00031  -0.00472   0.01521   0.01049   2.88806
    R2        2.60379   0.00213   0.00431  -0.00932  -0.00501   2.59877
    R3        2.31809  -0.00134   0.00231  -0.00823  -0.00593   2.31216
    R4        2.91803   0.00603   0.00553   0.00181   0.00734   2.92537
    R5        2.60014   0.00094   0.00597  -0.01646  -0.01049   2.58965
    R6        2.31529  -0.00150   0.00447  -0.01496  -0.01050   2.30479
    R7        2.07071  -0.00021  -0.00086   0.00211   0.00125   2.07196
    R8        2.06010   0.00046   0.00131  -0.00287  -0.00156   2.05854
    R9        2.07177   0.00002  -0.00103   0.00318   0.00215   2.07392
   R10        2.88893   0.00168   0.00067   0.00271   0.00338   2.89230
   R11        2.06306  -0.00028   0.00102  -0.00380  -0.00277   2.06029
   R12        2.07210   0.00006  -0.00044   0.00148   0.00104   2.07314
   R13        2.06612  -0.00090   0.00065  -0.00417  -0.00352   2.06260
   R14        2.74954   0.00021   0.00052  -0.00113  -0.00060   2.74894
   R15        2.07598   0.00011  -0.00148   0.00476   0.00328   2.07926
   R16        2.05610   0.00068   0.00152  -0.00301  -0.00148   2.05462
   R17        2.07506  -0.00030  -0.00124   0.00305   0.00181   2.07687
   R18        2.75358  -0.00288  -0.00022  -0.00573  -0.00595   2.74763
   R19        2.07575  -0.00005  -0.00163   0.00486   0.00322   2.07897
   R20        2.06130  -0.00027  -0.00036   0.00045   0.00009   2.06139
   R21        2.07021   0.00083  -0.00033   0.00303   0.00270   2.07291
   R22        2.76484  -0.00373  -0.00041  -0.00718  -0.00759   2.75724
   R23        2.06664   0.00101  -0.00018   0.00298   0.00280   2.06944
   R24        2.05964   0.00054   0.00043  -0.00004   0.00040   2.06004
   R25        2.07778  -0.00007  -0.00181   0.00537   0.00355   2.08133
   R26        2.78540   0.00263   0.00316  -0.00323  -0.00007   2.78533
   R27        2.07505   0.00055  -0.00004   0.00148   0.00144   2.07649
    A1        2.05519  -0.00091  -0.00040  -0.00164  -0.00207   2.05311
    A2        2.12395  -0.00387  -0.00473   0.00180  -0.00297   2.12098
    A3        2.10372   0.00478   0.00516   0.00018   0.00531   2.10903
    A4        2.05915   0.00793   0.00317   0.01511   0.01435   2.07350
    A5        2.09217  -0.00365   0.00230  -0.02050  -0.02205   2.07012
    A6        2.13164  -0.00434  -0.00597   0.00230  -0.00776   2.12388
    A7        1.95940  -0.00025  -0.00544   0.01485   0.00943   1.96883
    A8        1.87319  -0.00026   0.00602  -0.01832  -0.01232   1.86087
    A9        1.94893   0.00043  -0.00483   0.01621   0.01140   1.96034
   A10        1.89662   0.00059  -0.00155   0.00958   0.00801   1.90462
   A11        1.88961  -0.00065   0.00649  -0.02598  -0.01945   1.87017
   A12        1.89452   0.00018  -0.00054   0.00383   0.00328   1.89781
   A13        1.92738  -0.00091   0.00409  -0.01767  -0.01360   1.91378
   A14        1.91754   0.00042   0.00312  -0.00634  -0.00321   1.91434
   A15        1.93169  -0.00082   0.00040  -0.00630  -0.00594   1.92575
   A16        1.90587   0.00047  -0.00423   0.01698   0.01277   1.91864
   A17        1.88379   0.00058  -0.00150   0.00532   0.00376   1.88755
   A18        1.89688   0.00028  -0.00224   0.00896   0.00672   1.90360
   A19        1.94336  -0.00083  -0.00793   0.01948   0.01156   1.95492
   A20        1.88941   0.00027   0.01170  -0.03398  -0.02230   1.86710
   A21        1.92240   0.00012  -0.00417   0.01348   0.00936   1.93177
   A22        1.90364   0.00030  -0.00018   0.00208   0.00183   1.90546
   A23        1.89642  -0.00002   0.00261  -0.00965  -0.00696   1.88947
   A24        1.90833   0.00017  -0.00204   0.00861   0.00658   1.91491
   A25        1.97446  -0.00176  -0.01312   0.03011   0.01697   1.99143
   A26        1.93524   0.00211   0.00156   0.00746   0.00903   1.94427
   A27        1.88987   0.00030   0.00336  -0.00925  -0.00584   1.88403
   A28        1.89961  -0.00017   0.00401  -0.01288  -0.00892   1.89068
   A29        1.88852   0.00006   0.00319  -0.01257  -0.00936   1.87916
   A30        1.87287  -0.00053   0.00150  -0.00502  -0.00345   1.86942
   A31        1.90523   0.00075   0.00252  -0.00379  -0.00124   1.90399
   A32        1.93074   0.00021   0.00354  -0.00924  -0.00566   1.92507
   A33        1.96904  -0.00099  -0.01326   0.03482   0.02156   1.99060
   A34        1.87709  -0.00004   0.00182  -0.00426  -0.00238   1.87471
   A35        1.88684  -0.00018   0.00416  -0.01515  -0.01099   1.87585
   A36        1.89221   0.00028   0.00164  -0.00422  -0.00257   1.88965
   A37        1.91660  -0.00017   0.00516  -0.01566  -0.01047   1.90612
   A38        1.98438   0.00472   0.00229   0.01948   0.02173   2.00612
   A39        1.86168  -0.00133  -0.00538   0.01234   0.00695   1.86863
   A40        1.96567  -0.00435  -0.00460  -0.00432  -0.00886   1.95681
   A41        1.89004   0.00075  -0.00408   0.00567   0.00149   1.89153
   A42        1.83858   0.00042   0.00614  -0.01671  -0.01065   1.82794
   A43        2.06909  -0.00297   0.00282  -0.01836  -0.01558   2.05351
   A44        2.19121   0.00559  -0.00236   0.02584   0.02343   2.21465
   A45        2.02273  -0.00262  -0.00044  -0.00721  -0.00770   2.01503
   A46        2.15449  -0.00303  -0.00191  -0.00683  -0.00884   2.14565
   A47        2.05543   0.00470   0.00315   0.00433   0.00730   2.06273
   A48        2.04049  -0.00180  -0.00102  -0.00489  -0.00603   2.03446
    D1        1.02696  -0.00049  -0.00146  -0.00003  -0.00152   1.02544
    D2        3.10989  -0.00007  -0.00282   0.00867   0.00586   3.11575
    D3       -1.09901   0.00023  -0.00261   0.01120   0.00862  -1.09039
    D4       -2.14191  -0.00009   0.00022   0.01414   0.01433  -2.12758
    D5       -0.05898   0.00032  -0.00114   0.02284   0.02170  -0.03728
    D6        2.01530   0.00063  -0.00093   0.02538   0.02447   2.03977
    D7       -0.14945  -0.00060  -0.00043  -0.01741  -0.01786  -0.16731
    D8       -3.00998   0.00014  -0.00127   0.01430   0.01307  -2.99692
    D9        3.01909  -0.00086  -0.00199  -0.03144  -0.03346   2.98563
   D10        0.15856  -0.00011  -0.00283   0.00027  -0.00253   0.15603
   D11       -3.02476  -0.00180  -0.01413  -0.23311  -0.24674   3.01169
   D12       -0.80460  -0.00409  -0.01417  -0.23653  -0.25036  -1.05496
   D13        1.21404  -0.00186  -0.00888  -0.23855  -0.24689   0.96716
   D14        0.13896   0.00091  -0.00335  -0.07898  -0.08276   0.05620
   D15        2.35911  -0.00138  -0.00340  -0.08240  -0.08638   2.27274
   D16       -1.90543   0.00086   0.00189  -0.08442  -0.08290  -1.98833
   D17        3.02135   0.00047  -0.00458   0.08049   0.07631   3.09766
   D18       -0.10082   0.00012  -0.00577   0.06321   0.05774  -0.04309
   D19       -0.14290  -0.00230  -0.01518  -0.07764  -0.09312  -0.23602
   D20        3.01812  -0.00265  -0.01638  -0.09492  -0.11169   2.90642
   D21        1.06912   0.00116   0.00291   0.00401   0.00695   1.07607
   D22       -1.16147  -0.00160  -0.00067  -0.00598  -0.00669  -1.16816
   D23        3.09569  -0.00010  -0.00309   0.01341   0.01038   3.10607
   D24       -3.11073   0.00143   0.00235   0.00975   0.01210  -3.09863
   D25        0.94187  -0.00133  -0.00123  -0.00025  -0.00154   0.94033
   D26       -1.08416   0.00018  -0.00365   0.01914   0.01553  -1.06863
   D27       -1.01583   0.00154   0.00184   0.01280   0.01463  -1.00120
   D28        3.03677  -0.00122  -0.00174   0.00280   0.00099   3.03776
   D29        1.01074   0.00028  -0.00416   0.02219   0.01806   1.02880
   D30        1.99469   0.00007   0.00127  -0.00608  -0.00461   1.99007
   D31       -1.16447   0.00048   0.00234   0.00993   0.01219  -1.15227
   D32       -0.09774   0.00002  -0.00089   0.00133   0.00054  -0.09720
   D33        3.02629   0.00043   0.00018   0.01734   0.01735   3.04364
   D34       -2.18342  -0.00042  -0.00300   0.00361   0.00072  -2.18270
   D35        0.94061  -0.00001  -0.00194   0.01963   0.01753   0.95814
   D36        1.66485   0.00051  -0.00323   0.02892   0.02581   1.69066
   D37       -1.45778   0.00017  -0.00442   0.01217   0.00769  -1.45009
   D38       -0.47491   0.00042  -0.00030   0.01830   0.01805  -0.45686
   D39        2.68564   0.00009  -0.00148   0.00155  -0.00008   2.68556
   D40       -2.52525  -0.00032  -0.00517   0.02570   0.02064  -2.50461
   D41        0.63531  -0.00066  -0.00636   0.00894   0.00251   0.63782
   D42        2.62630   0.00003   0.00366  -0.00732  -0.00377   2.62254
   D43       -0.79413   0.00027   0.00511  -0.03740  -0.03223  -0.82636
   D44        0.56414  -0.00050  -0.00243   0.00572   0.00323   0.56737
   D45       -2.85630  -0.00027  -0.00098  -0.02436  -0.02523  -2.88153
   D46       -1.55882  -0.00032   0.00211  -0.00654  -0.00451  -1.56334
   D47        1.30393  -0.00009   0.00356  -0.03662  -0.03297   1.27095
   D48       -0.91588  -0.00029  -0.01242   0.02235   0.00983  -0.90605
   D49        2.48828   0.00070  -0.01300   0.05241   0.03942   2.52770
   D50        1.27849  -0.00027  -0.00735   0.01340   0.00592   1.28441
   D51       -1.60053   0.00072  -0.00794   0.04346   0.03551  -1.56502
   D52       -2.94808  -0.00141  -0.01103   0.00765  -0.00332  -2.95140
   D53        0.45608  -0.00043  -0.01162   0.03772   0.02628   0.48236
         Item               Value     Threshold  Converged?
 Maximum Force            0.007935     0.000450     NO 
 RMS     Force            0.001797     0.000300     NO 
 Maximum Displacement     0.757354     0.001800     NO 
 RMS     Displacement     0.188840     0.001200     NO 
 Predicted change in Energy=-2.113421D-03
 GradGradGradGradGradGradGradGradGradGradGradGradGradGradGradGradGradGrad

                          Input orientation:                          
 ---------------------------------------------------------------------
 Center     Atomic      Atomic             Coordinates (Angstroms)
 Number     Number       Type             X           Y           Z
 ---------------------------------------------------------------------
      1          6           0        0.398495   -1.689942   -0.384719
      2          6           0       -0.294202   -2.763821    2.338378
      3          6           0        0.369928   -1.303035   -1.862952
      4          6           0        0.868028   -0.544690    2.490215
      5          6           0       -1.271091   -4.973745    2.419854
      6          6           0       -2.611570   -3.171789    1.417770
      7          6           0       -1.283198    0.094971    0.048915
      8          6           0       -0.343171   -1.277507    1.908383
      9          7           0       -1.366346   -3.568841    2.054818
     10          7           0       -0.482818   -1.054288    0.458156
     11          8           0        1.166973   -2.542757    0.038604
     12          8           0        0.600229   -3.126961    3.083801
     13          1           0        0.565017   -0.236638   -2.026983
     14          1           0        1.147477   -1.887663   -2.353124
     15          1           0       -0.593897   -1.532129   -2.335182
     16          1           0        1.785495   -0.982304    2.095990
     17          1           0        0.817874    0.519099    2.226815
     18          1           0        0.884416   -0.642511    3.577182
     19          1           0       -1.990459   -5.244937    3.207012
     20          1           0       -0.261042   -5.138595    2.786942
     21          1           0       -1.457678   -5.615081    1.547075
     22          1           0       -2.645289   -3.368339    0.335850
     23          1           0       -2.822522   -2.114062    1.580991
     24          1           0       -3.426035   -3.739109    1.884744
     25          1           0       -2.221072    0.097841    0.614274
     26          1           0       -1.539618    0.020167   -1.007979
     27          1           0       -0.792514    1.066554    0.217215
     28          1           0       -1.253222   -0.844860    2.346625
 ---------------------------------------------------------------------
                    Distance matrix (angstroms):
                    1          2          3          4          5
     1  C    0.000000
     2  C    3.008040   0.000000
     3  C    1.528295   4.497348   0.000000
     4  C    3.130066   2.509657   4.446712   0.000000
     5  C    4.629958   2.417584   5.874477   4.919076   0.000000
     6  C    3.808587   2.526688   4.810895   4.489921   2.459288
     7  C    2.490390   3.793738   2.888335   3.316155   5.595836
     8  C    2.445095   1.548039   3.838245   1.530540   3.845103
     9  N    3.549122   1.370385   4.847416   3.785167   1.454675
    10  N    1.375211   2.548198   2.485275   2.492737   4.453288
    11  O    1.223542   2.733654   2.405848   3.176797   4.186192
    12  O    3.759834   1.219644   5.277320   2.663115   2.711693
    13  H    2.199285   5.116766   1.096435   4.537818   6.751728
    14  H    2.115345   4.985608   1.089331   5.033846   6.176948
    15  H    2.194095   4.842422   1.097471   5.137773   5.908779
    16  H    2.928897   2.749127   4.216624   1.090259   5.037778
    17  H    3.446136   3.467957   4.499669   1.097060   5.879828
    18  H    4.126729   2.724652   5.504184   1.091482   4.974455
    19  H    5.589778   3.128538   6.842116   5.547708   1.100297
    20  H    4.731556   2.416993   6.060623   4.739916   1.087257
    21  H    4.752254   3.179547   5.793286   5.657498   1.099030
    22  H    3.549769   3.146930   4.265178   4.995766   2.967965
    23  H    3.797216   2.718129   4.765526   4.112150   3.359824
    24  H    4.896588   3.311397   5.864214   5.386083   2.540561
    25  H    3.325100   3.856744   3.848685   3.670768   5.466587
    26  H    2.658798   4.527666   2.475521   4.284062   6.063110
    27  H    3.062531   4.406747   3.360553   3.243460   6.447159
    28  H    3.301904   2.145274   4.534873   2.147190   4.129573
                    6          7          8          9         10
     6  C    0.000000
     7  C    3.782865   0.000000
     8  C    2.995771   2.494988   0.000000
     9  N    1.453982   4.177808   2.513671   0.000000
    10  N    3.152183   1.459070   1.473935   3.106916   0.000000
    11  O    4.071261   3.600146   2.716149   3.396420   2.261277
    12  O    3.618470   4.810268   2.385811   2.263069   3.516102
    13  H    5.529208   2.799145   4.170769   5.612026   2.818231
    14  H    5.477140   3.950798   4.555740   5.345616   3.354947
    15  H    4.565538   2.967575   4.258584   4.900711   2.836090
    16  H    4.958630   3.842904   2.157211   4.077496   2.798736
    17  H    5.102773   3.055755   2.162687   4.638066   2.701019
    18  H    4.825166   4.206079   2.166813   3.993361   3.430337
    19  H    2.808043   6.244071   4.487817   2.127526   5.233615
    20  H    3.356775   5.994315   3.960633   2.054708   4.706802
    21  H    2.705155   5.905897   4.493019   2.110270   4.789251
    22  H    1.100145   3.732579   3.484851   2.151917   3.169554
    23  H    1.090838   3.097839   2.637080   2.112190   2.803229
    24  H    1.096936   4.760483   3.945136   2.073701   4.231541
    25  H    3.389481   1.095101   2.663233   4.031164   2.091244
    26  H    4.149931   1.090125   3.408902   4.721412   2.102578
    27  H    4.765905   1.101393   2.925162   5.019258   2.156835
    28  H    2.849996   2.482671   1.098832   2.741901   2.050292
                   11         12         13         14         15
    11  O    0.000000
    12  O    3.152097   0.000000
    13  H    3.153916   5.871569   0.000000
    14  H    2.479898   5.603168   1.780874   0.000000
    15  H    3.123603   5.773629   1.765323   1.777389   0.000000
[...]
 318,0.00002527,0.00009031,-0.00806760,-0.01517596,0.00330757,-0.007637
 42,-0.01315512,-0.01108226,0.12293965,0.25221898,0.00019322,-0.0009319
 7,0.00000613,0.00478771,0.00314102,-0.00296885,-0.00000418,0.00002391,
 0.00012814,0.00007192,-0.00013810,0.00011568,0.00041597,-0.00270123,-0
 .00030648,-0.05614984,0.01131697,0.04320779,-0.00000008,-0.00005316,0.
 00018182,-0.00013436,0.00012545,-0.00050263,-0.00466505,-0.00759955,-0
 .03520971,-0.00029385,-0.00015956,0.00014153,0.00014626,0.00069350,0.0
 0011350,-0.00360120,0.00004002,-0.00005159,0.00001263,0.00002611,-0.00
 002041,-0.00001578,-0.00001025,0.00002341,-0.00000164,-0.00006243,0.00
 005308,0.00002627,0.00004363,-0.00005181,-0.00004070,-0.00008000,0.000
 00664,0.00002114,0.00007344,0.00005119,-0.00017650,0.00063023,-0.00005
 028,-0.00003888,-0.00007190,0.00005081,0.00030031,0.00048721,0.0008458
 4,0.06319881,-0.00090306,0.00009492,0.00005544,-0.00058459,-0.00076132
 ,-0.00006550,-0.00010941,0.00002430,0.00005971,-0.00009668,0.00007889,
 0.00021248,-0.00037977,0.00216009,0.00119007,0.01042489,-0.06915979,-0
 .06001780,0.00036263,-0.00039366,0.00005408,-0.00003438,0.00006834,-0.
 00083133,-0.00034801,0.00380386,0.01050210,0.00090515,0.00050412,-0.00
 009325,0.00007404,-0.00017786,0.00015305,0.00044244,0.00006420,0.00006
 011,0.00005853,0.00001580,-0.00000702,0.00005746,0.00001645,0.00000101
 ,0.00001158,-0.00007195,0.00020837,-0.00008332,-0.00001898,-0.00003316
 ,-0.00002240,-0.00002567,-0.00001327,0.00003266,0.00001102,0.00002321,
 -0.00003911,0.00007226,-0.00025639,0.00011344,-0.00001120,-0.00023692,
 -0.00015642,0.00000883,-0.00101965,-0.01208421,0.06536452,-0.00060609,
 -0.00010146,-0.00006099,0.00620762,0.00476794,-0.00094543,-0.00005770,
 0.00005993,0.00005050,0.00006576,-0.00016304,0.00024413,0.00027924,-0.
 00270708,0.00001859,0.04273449,-0.06101306,-0.27443801,-0.00007062,-0.
 00023635,0.00014085,-0.00002358,0.00003096,-0.00079212,-0.01665529,-0.
 00217790,-0.01863439,0.00076580,0.00049869,0.00043712,-0.00002006,-0.0
 0001466,0.00059071,-0.00313959,-0.00030228,-0.00087240,0.00004901,0.00
 001754,0.00002275,-0.00000621,-0.00000222,0.00001855,0.00006955,-0.000
 08856,0.00016814,-0.00000216,0.00004770,-0.00006886,-0.00006445,-0.000
 12690,-0.00000620,0.00006353,0.00012010,0.00008267,0.00040595,0.000238
 71,-0.00013379,-0.00023490,0.00011138,0.00021080,-0.00001625,0.0012095
 5,0.00004216,-0.03544435,0.06424056,0.30534396,-0.00104986,0.00091309,
 0.00064793,0.00241411,0.00249948,0.00063613,0.00008686,-0.00002633,-0.
 00004559,0.00018346,-0.00024230,-0.00025089,-0.00466083,-0.00127357,-0
 .00130670,-0.05681298,0.03972716,0.00110501,-0.00013896,-0.00104104,0.
 00026249,-0.00189461,-0.00045407,-0.00036273,-0.00656750,0.03031351,-0
 .00105527,-0.00064043,-0.00097959,0.00039465,0.00034376,-0.00061659,0.
 00004327,-0.00055193,-0.00040766,-0.00039198,-0.00000683,-0.00000514,-
 0.00001472,0.00001938,-0.00000073,-0.00003302,-0.00000719,0.00000633,0
 .00002976,0.00013701,0.00011309,0.00002171,0.00001181,0.00001317,0.000
 00843,0.00001404,0.00004903,0.00005578,0.00046341,-0.00004101,-0.00023
 866,0.00016698,0.00146582,-0.00046745,-0.00001559,-0.00003185,0.000230
 48,-0.00071368,0.00588934,0.00162000,0.06227441,0.00104125,-0.00084689
 ,-0.00036978,-0.00246846,-0.00190081,-0.00020193,-0.00001065,-0.000008
 93,0.00000422,-0.00003694,0.00025082,0.00005450,0.00265105,0.00118560,
 0.00058673,0.04838912,-0.31526941,-0.02017783,-0.00181721,-0.00007527,
 0.00018476,-0.00107949,-0.00039793,0.00004418,0.00329216,-0.00607763,0
 .00332741,-0.00298521,-0.00179971,0.00086522,-0.00028885,0.00058046,-0
 .00027047,0.00079826,0.00052050,0.00040061,-0.00000147,0.00003316,0.00
 001289,-0.00001905,0.00000070,0.00002015,0.00001894,-0.00001086,-0.000
 01693,-0.00008790,-0.00001574,-0.00000490,0.00002270,0.00004202,0.0000
 0491,0.00001219,-0.00003400,-0.00003281,-0.00002031,0.00016914,-0.0002
 1996,-0.00016579,-0.00066871,-0.00007335,-0.00023722,0.00013467,-0.000
 15903,-0.00015475,-0.00697283,-0.00071522,-0.04907100,0.34459892,0.000
 87578,-0.00067252,-0.00060068,0.00042215,0.00060055,0.00099306,0.00003
 028,0.00002113,0.00000633,0.00021129,-0.00017717,-0.00033088,-0.003801
 31,-0.00006079,-0.00160413,0.00180430,-0.02481085,-0.05175640,0.000511
 82,0.00043892,-0.00037799,-0.00067687,0.00016478,0.00126341,-0.0030379
 1,0.02352742,-0.00089245,-0.00037602,-0.00012242,-0.00001689,-0.000242
 35,0.00050131,-0.00003201,0.00013775,-0.00006957,-0.00024766,0.0000114
 6,0.00000964,0.00000406,-0.00005448,-0.00000400,0.00000424,0.00001633,
 -0.00003790,-0.00006517,0.00009845,0.00009693,0.00004623,0.00001038,0.
 00004178,0.00001765,-0.00005897,-0.00000075,-0.00003011,-0.00000297,-0
 .00022461,0.00012493,-0.00026218,0.00127945,0.00001087,-0.00008194,0.0
 0038745,0.00014767,0.00463760,-0.03135182,-0.00060741,0.00297328,0.019
 09309,0.05314098,-0.00004939,0.00031982,-0.00020471,0.00084309,0.00682
 266,0.00354798,0.00001810,-0.00002355,0.00005431,0.00007806,-0.0001397
 2,0.00000549,0.00097741,-0.00280381,0.00097774,-0.20637834,-0.09834148
 ,0.07321442,-0.00016237,0.00008505,0.00006639,0.00017746,0.00016620,-0
 .00036424,-0.03268276,-0.01482609,-0.00250762,0.00020061,-0.00014737,0
 .00007843,-0.00005893,-0.00021637,0.00036338,-0.00214728,-0.00076210,-
 0.00263572,-0.00000478,-0.00001233,0.00001888,-0.00000333,0.00000110,0
 .00000100,0.00000270,-0.00000608,0.00001997,0.00002715,0.00004625,-0.0
 0002318,-0.00003991,-0.00008792,0.00001302,0.00000975,0.00006450,0.000
 04401,0.00025124,0.00120697,-0.00086249,0.00032479,-0.00023885,-0.0002
 5076,-0.00023748,0.00047341,0.00024741,-0.00340522,-0.00325816,0.00410
 223,0.00686978,0.00227430,-0.00256949,0.23526334,0.00091018,-0.0008962
 4,-0.00070639,0.00056176,-0.00111583,0.00031648,-0.00003422,0.00000675
 ,0.00005729,-0.00006003,0.00014450,0.00013169,0.00279903,0.00087577,-0
 .00078354,-0.10276291,-0.11611286,0.04475399,-0.00015983,0.00046500,-0
 .00018613,0.00036815,-0.00021779,0.00044070,0.00912320,0.00480162,-0.0
 0212307,-0.00176248,-0.00079844,0.00060561,-0.00039317,0.00052402,-0.0
 0002697,0.00059255,0.00048364,0.00072853,0.00001332,0.00000649,0.00001
 853,-0.00001109,0.00000656,0.00001936,0.00000983,-0.00002148,0.0000185
 9,-0.00005743,-0.00005213,-0.00001080,-0.00000665,-0.00000494,0.000003
 17,-0.00000771,-0.00002455,-0.00003598,-0.00059048,0.00064573,0.000053
 22,-0.00003385,0.00001250,-0.00023844,0.00011297,-0.00013269,0.0001833
 6,0.00754117,0.00488389,-0.00357377,-0.02557646,-0.01335156,0.01183745
 ,0.10977343,0.11953538,-0.00064371,0.00014829,0.00020428,-0.00183952,0
 .00339399,0.00003360,-0.00004565,0.00001340,0.00004568,0.00002370,-0.0
 0004000,0.00014857,-0.00128116,-0.00147085,0.00133828,0.07761036,0.047
 47657,-0.08641845,0.00010033,-0.00029501,0.00011299,-0.00002806,-0.000
 12926,-0.00054309,-0.02345229,-0.01170235,0.00582994,0.00091384,0.0006
 4711,-0.00002128,0.00005256,-0.00009597,0.00023376,-0.00083404,-0.0010
 8899,-0.00130248,0.00003432,0.00001957,0.00000098,0.00000915,-0.000002
 44,0.00000236,0.00001424,-0.00006873,0.00011075,-0.00002487,0.00000782
 ,-0.00003515,-0.00002696,-0.00004398,-0.00000655,0.00003213,0.00005678
 ,0.00005171,0.00073838,0.00000656,-0.00012534,-0.00003039,-0.00031625,
 0.00003969,0.00043620,0.00020900,-0.00044649,0.02499794,0.01693391,-0.
 01090270,-0.00326946,-0.00197494,0.00088163,-0.07336097,-0.05165954,0.
 09068445,0.00006674,-0.00389650,-0.00521008,-0.00012696,-0.00037631,-0
 .00013404,0.00021408,-0.00001864,0.00005074,0.00006126,-0.00031710,-0.
 00042920,0.00009039,0.00007084,0.00010311,0.00011929,0.00027927,0.0000
 6663,-0.25626119,-0.01746137,0.09747748,-0.00038416,0.00003052,0.00279
 779,0.00021162,-0.00011592,-0.00011232,-0.01732483,0.01321601,0.006930
 33,-0.00130517,0.00266281,0.00028467,0.00024132,-0.00001225,0.00012271
 ,-0.00002767,-0.00008702,0.00005223,0.00002536,-0.00005255,0.00003046,
 0.00000920,-0.00001925,0.00016293,0.00022561,0.00008941,0.00011093,-0.
 00003372,0.00007922,0.00009182,-0.00007862,-0.00002048,-0.00011191,0.0
 0001522,0.00000955,-0.00001802,0.00001457,-0.00003642,0.00003750,-0.00
 003070,0.00000100,-0.00001144,-0.00001178,-0.00016911,-0.00004856,0.00
 014907,0.00041104,-0.00016845,0.00004115,0.00000643,-0.00004543,0.2821
 8686,0.00251751,0.00122009,0.00545009,0.00065834,0.00026881,-0.0002261
 3,-0.00016850,-0.00009689,-0.00000951,-0.00022006,-0.00021844,0.000359
 17,-0.00017483,-0.00005205,-0.00006798,0.00081796,-0.00086479,-0.00018
 881,-0.02016588,-0.05083140,0.00924983,0.00014752,0.00047123,-0.002395
 57,-0.00036706,0.00006693,-0.00003868,0.03274112,-0.00725224,-0.014281
 47,0.00095094,-0.00291811,-0.00115042,-0.00032135,-0.00000210,-0.00011
 597,0.00009324,0.00006116,-0.00018645,-0.00000392,0.00007346,-0.000072
 72,-0.00003217,0.00000654,-0.00018581,-0.00010641,-0.00004772,-0.00009
 829,-0.00001061,0.00015614,0.00005456,0.00007409,0.00017122,0.00006663
 ,-0.00000345,-0.00001741,0.00002418,0.00000541,0.00006075,-0.00001399,
 0.00003061,0.00000576,0.00001027,-0.00000891,0.00004669,-0.00001028,-0
 .00031474,-0.00015403,0.00047441,-0.00008888,0.00025824,0.00000288,0.0
 0933816,0.06011723,-0.00000970,0.00049400,-0.00139535,-0.00010103,0.00
 071736,0.00030535,0.00041241,-0.00043709,-0.00045449,0.00020501,-0.000
 31775,-0.00023844,-0.00007757,0.00000303,-0.00008583,-0.00012834,0.000
 00651,0.00007448,0.09910676,0.00583647,-0.09820515,-0.00163759,0.00016
 101,0.00122597,-0.00014364,-0.00011727,-0.00003099,-0.00970953,0.00084
 121,0.00440988,-0.00037572,0.00066847,0.00057159,-0.00003881,-0.000218
 14,-0.00001732,-0.00036045,-0.00022468,0.00016422,0.00007999,-0.000172
 49,0.00012020,0.00036502,0.00013002,-0.00005463,0.00003356,0.00012234,
 -0.00001050,-0.00001020,0.00005176,-0.00000297,-0.00002153,-0.00000067
 ,0.00000224,-0.00000674,-0.00001723,0.00001416,0.00000152,0.00003335,-
 0.00000901,0.00001078,-0.00003535,0.00000112,0.00002494,-0.00008078,-0
 .00007928,0.00010160,0.00003094,0.00023111,-0.00001477,-0.00004737,-0.
 00002792,-0.10754982,-0.00917703,0.09974934,0.00123612,-0.00027120,-0.
 00229226,-0.00007681,-0.00097131,-0.00061769,-0.00045138,0.00082010,0.
 00083980,0.00024234,-0.00017300,-0.00009156,0.00003369,-0.00002257,0.0
 0003105,-0.00009274,0.00007736,0.00000717,-0.05299411,0.00142442,-0.02
 514320,-0.00161106,0.00285447,0.00102189,0.00009493,0.00021743,-0.0000
 0599,-0.00388740,0.00158367,-0.02001306,-0.00013013,0.00002299,0.00054
 944,-0.00018485,0.00052451,-0.00011823,-0.00138019,0.00046120,0.001192
 31,-0.00003826,-0.00019494,0.00004916,0.00008796,0.00044424,0.00031343
 ,0.00004906,0.00010230,-0.00002369,0.00007936,0.00005912,0.00005543,-0
 .00004155,-0.00002061,-0.00002531,0.00001151,0.00001705,0.00000097,-0.
 00000625,-0.00002731,-0.00000106,0.00000387,0.00002988,0.00000234,0.00
 005492,-0.00008024,-0.00000491,0.00004687,0.00015123,0.00005175,0.0000
 2167,-0.00002362,-0.00000050,0.00572261,-0.00043129,0.03009964,0.05407
 265,-0.00027799,0.00117310,0.00196510,0.00053261,0.00141911,0.00102622
 ,0.00151873,-0.00041755,-0.00069617,-0.00015769,-0.00053414,0.00048036
 ,-0.00006853,0.00004730,-0.00005960,0.00015684,-0.00001624,0.00020526,
 0.00098628,-0.05151566,-0.00108868,0.00262878,-0.00411901,-0.00043948,
 -0.00022621,-0.00029976,-0.00014078,0.00275681,-0.00271196,0.03271036,
 -0.00008708,-0.00005563,-0.00048019,0.00027805,-0.00078943,0.00022225,
 0.00001482,-0.00004614,-0.00024127,-0.00031548,-0.00023145,-0.00001020
 ,0.00037021,-0.00117259,-0.00157149,0.00001960,0.00009534,-0.00004413,
 0.00019355,0.00029022,0.00001950,0.00014247,0.00015152,0.00007300,-0.0
 0001310,-0.00002836,0.00000375,0.00002111,0.00004171,0.00000590,0.0000
 0236,-0.00005015,-0.00000355,-0.00003443,-0.00009807,-0.00009358,0.000
 04279,0.00009014,0.00006279,-0.00002826,-0.00001638,-0.00004688,-0.000
 31141,-0.00034403,0.00271660,-0.00659489,0.05669585,0.00112257,-0.0007
 1092,-0.00160781,-0.00061997,-0.00124564,-0.00007195,0.00239847,-0.001
 98401,-0.00159049,0.00012073,0.00017347,0.00001617,0.00007485,-0.00009
 579,0.00005520,-0.00013304,0.00003661,-0.00017657,-0.03167779,0.008950
 78,-0.32521733,-0.00052767,0.00120989,0.00098155,0.00030403,0.00034124
 ,0.00009731,-0.00180739,0.00276974,-0.00746940,-0.00037364,0.00039695,
 0.00043827,-0.00006158,0.00060559,-0.00025468,0.00041310,-0.00119813,-
 0.00051313,0.00036114,-0.00059820,0.00031589,0.00112220,-0.00092880,-0
 .00062201,-0.00004836,0.00000444,-0.00001392,0.00003028,-0.00002069,0.
 00000595,-0.00003794,-0.00002915,-0.00002785,0.00001736,0.00003795,-0.
 00001235,-0.00002467,-0.00005292,-0.00000821,0.00000174,0.00004508,0.0
 0001240,0.00001264,0.00008402,0.00008268,-0.00005918,-0.00007002,-0.00
 007290,0.00003213,0.00003114,0.00002391,-0.00129374,-0.00066798,-0.011
 09495,0.03090773,-0.00673927,0.35427904,0.00332409,0.00116511,-0.00213
 587,-0.00029432,-0.00023058,-0.00002926,0.00009575,-0.00006984,-0.0002
 7727,-0.00024647,0.00029386,0.00044887,0.00011181,0.00003983,0.0000696
 5,-0.00014979,0.00041877,-0.00001325,-0.10839778,-0.10068363,-0.037480
 29,0.00075902,-0.00007721,0.00071211,0.00019865,-0.00010209,0.00002278
 ,0.00925732,0.02379953,0.00819985,-0.00228905,0.00041332,-0.00015933,0
 .00016566,0.00002203,0.00006102,-0.00006023,-0.00022538,0.00013118,-0.
 00001361,-0.00006892,0.00005530,0.00003258,0.00002389,0.00008509,0.000
 01642,0.00008860,-0.00001253,-0.00030971,-0.00010406,-0.00042493,0.000
 11458,-0.00021877,0.00014083,-0.00000128,0.00001233,-0.00001582,-0.000
 00035,-0.00003926,0.00001308,-0.00001918,0.00001008,-0.00000588,-0.000
 01136,-0.00006019,0.00000934,0.00005918,0.00007248,-0.00020651,0.00003
 856,-0.00003741,-0.00002117,-0.01436117,-0.02467057,-0.01023915,-0.001
 35460,-0.00145143,0.00003760,0.11372334,-0.00688178,0.00067737,0.00574
 596,-0.00003848,-0.00010036,-0.00010125,0.00003940,0.00015044,-0.00024
 462,-0.00004910,-0.00088821,0.00074970,0.00002675,0.00012983,-0.000059
 48,0.00020463,-0.00003048,-0.00013472,-0.09979672,-0.21679163,-0.06453
 479,-0.00051104,0.00036975,-0.00336762,-0.00004691,0.00018355,0.000090
 11,0.00427388,-0.03371003,-0.00681631,0.00346956,-0.00180740,0.0000050
 8,0.00020884,0.00005529,0.00020715,0.00006389,-0.00001277,-0.00037272,
 -0.00001991,0.00004960,-0.00006048,-0.00006890,-0.00000146,-0.00015129
 ,-0.00010878,0.00012896,-0.00020996,0.00034153,0.00078095,0.00017062,0
 .00018322,0.00034882,0.00011752,-0.00002752,-0.00001694,0.00001499,0.0
 0001727,0.00000057,-0.00000805,0.00001907,0.00000846,0.00000105,0.0000
 6199,0.00005097,0.00007209,0.00005217,0.00011269,-0.00004595,-0.000047
 05,-0.00002449,0.00007899,-0.00312781,-0.00058375,-0.00111927,0.000289
 84,0.00255869,-0.00042795,0.10177684,0.24836349,0.00106928,-0.00051965
 ,-0.00125787,0.00028700,0.00037251,-0.00012254,0.00005739,-0.00042859,
 -0.00006811,-0.00025123,0.00020420,0.00048962,-0.00006777,0.00000823,-
 0.00003626,-0.00005111,-0.00017775,0.00002710,-0.03630048,-0.06533896,
 -0.07828287,0.00111454,0.00060769,0.00073800,-0.00011143,-0.00010882,-
 0.00002743,0.00213142,0.00996944,0.00572744,-0.00078991,0.00042651,-0.
 00007965,-0.00002916,-0.00021505,0.00005969,0.00000240,-0.00006779,-0.
 00020117,0.00023635,0.00001184,0.00005280,0.00013270,0.00024986,0.0003
 6655,0.00011775,-0.00002091,0.00007540,-0.00058234,-0.00012865,-0.0002
 4201,0.00023048,-0.00011491,0.00011522,-0.00000489,-0.00001663,0.00000
 434,0.00000836,0.00003319,0.00000365,-0.00000353,-0.00002109,-0.000004
 52,-0.00002397,0.00006743,-0.00000336,0.00000352,-0.00009431,0.0000480
 6,-0.00002408,0.00000058,0.00000610,0.00809253,0.01277569,0.00503185,-
 0.01663149,-0.02758873,-0.00796600,0.04119132,0.06990851,0.07561711,-0
 .00020863,-0.00076614,-0.00154635,-0.00089793,0.00100001,-0.00151974,0
 .00019809,-0.00017821,-0.00016398,-0.02521340,0.01104468,0.00994816,0.
 00007511,0.00016033,0.00021353,-0.00017554,-0.00048779,-0.00032934,0.0
 0093834,0.00095842,-0.00196573,-0.21260274,0.08418202,0.08676245,-0.00
 029013,0.00025524,-0.00051334,0.00293764,-0.00067674,-0.00129910,0.000
 38063,0.00015896,0.00023427,0.00077697,0.00087545,0.00017587,-0.000032
 01,-0.00002868,0.00005881,0.00002246,-0.00003517,-0.00005666,0.0000157
 9,0.00001678,0.00009859,-0.00351291,-0.00355675,-0.00241304,0.00123414
 ,-0.00026925,0.00041826,0.00103640,0.00027513,-0.00031911,-0.00002136,
 0.00000063,0.00002033,-0.00005310,-0.00008780,-0.00000839,0.00001118,0
 .00001710,0.00003810,0.00003495,0.00003691,0.00002220,-0.00017974,-0.0
 0069040,-0.00025317,0.00002493,-0.00029471,-0.00005896,0.00055162,-0.0
 0028628,-0.00001664,0.00049178,-0.00009848,-0.00029160,-0.00038809,-0.
 00030490,0.00019634,0.23484558,0.00141820,-0.00152755,0.00118130,0.028
 67274,-0.01092849,-0.01411500,-0.00007290,0.00033925,0.00014210,-0.016
 24661,0.00746524,0.00669058,-0.00061697,-0.00000434,0.00066294,0.00045
 936,-0.00106101,-0.00009889,-0.00041759,0.00020168,0.00212951,0.088433
 96,-0.09490650,-0.04810253,-0.00208593,-0.00043589,0.00148523,-0.00279
 559,0.00163069,0.00394833,-0.00009192,0.00050554,-0.00157188,-0.002084
 25,-0.00322996,0.00394293,-0.00001824,0.00004147,-0.00007271,-0.000013
 77,0.00003008,0.00009749,0.00001101,0.00000647,-0.00002322,-0.00311302
 ,-0.00159290,-0.00140730,0.00060900,0.00072039,0.00057391,0.00103347,0
 .00067365,0.00007723,0.00000293,-0.00030750,0.00011896,0.00002967,0.00
 020293,0.00002037,-0.00003211,0.00016370,-0.00009136,-0.00011420,0.000
 42217,-0.00008880,-0.00100291,-0.00013452,-0.00095877,-0.00020569,0.00
 011931,-0.00005970,-0.00017214,0.00039870,0.00015205,-0.00026881,-0.00
 011640,0.00008256,-0.00009733,-0.00000193,0.00020615,-0.09122037,0.101
 32571,-0.00239138,0.00546884,-0.00462111,-0.00699343,0.00271463,0.0050
 3980,0.00096459,-0.00152628,-0.00069132,-0.00929321,0.00433627,0.00537
 625,-0.00002517,-0.00020059,-0.00016891,0.00026693,-0.00052031,-0.0000
 7119,0.00259597,-0.00166010,0.00011301,0.07664811,-0.03713254,-0.08516
 783,0.00026832,0.00004280,0.00007883,0.02842473,-0.01714768,-0.0297556
 0,0.00007951,-0.00028280,0.00111461,0.00060377,0.00062565,-0.00157945,
 0.00003512,0.00005349,0.00008770,-0.00010188,0.00010324,-0.00065367,-0
 .00008422,-0.00001830,-0.00008303,-0.00225776,-0.00116208,0.00008672,0
 .00054635,0.00004606,0.00012102,0.00026833,0.00031750,0.00059073,0.000
 00955,0.00007793,-0.00003232,-0.00000848,0.00000743,-0.00002081,0.0000
 4063,0.00000784,0.00003051,0.00003141,0.00016134,0.00009134,-0.0006383
 7,-0.00024814,-0.00028556,0.00003121,0.00019231,0.00008077,-0.00127888
 ,0.00041940,-0.00019468,-0.00015320,-0.00024711,0.00041118,-0.00015676
 ,0.00049269,-0.00007115,-0.08743178,0.04507850,0.11017416\\-0.00000522
 ,-0.00000089,-0.00000141,-0.00000204,0.00000317,-0.00000090,0.00000813
 ,0.00001484,-0.00000377,-0.00001373,-0.00000081,-0.00000385,-0.0000002
 4,-0.00001558,0.00000388,0.00000247,-0.00000544,0.00000363,0.00000193,
 -0.00000069,0.00000253,0.00000944,0.00000730,0.00001160,-0.00000288,0.
 00001685,-0.00000131,0.00000148,-0.00000470,-0.00001237,-0.00000152,-0
 .00000439,0.00000692,0.00000532,-0.00000339,0.00000331,-0.00000272,-0.
 00000176,-0.00000213,-0.00000013,0.00000154,0.00000286,-0.00000423,-0.
 00000469,0.00000458,0.00000080,0.00000096,0.00000053,0.00000107,-0.000
 00019,0.00000100,0.00000248,0.00000148,0.00000278,0.00000166,0.0000017
 0,-0.00000088,0.00000004,0.00000218,-0.00000311,0.00000188,0.00000213,
 0.00000019,-0.00000044,-0.00000127,-0.00000275,0.00000187,-0.00000372,
 -0.00000180,-0.00000029,-0.00000026,-0.00000056,-0.00000201,-0.0000005
 5,-0.00000212,-0.00000137,-0.00000067,-0.00000263,-0.00000183,0.000000
 28,-0.00000046,0.00000006,-0.00000346,-0.00000377\\\@


 "WOULD YOU TELL ME PLEASE, WHICH WAY I OUGHT TO WALK FROM HERE?"
 "THAT DEPENDS A GREAT DEAL ON WHERE YOU WANT TO GO," SAID THE CAT.
 "I DON'T MUCH CARE WHERE -- ", SAID ALICE.
 "THEN IT DOESN'T MATTER WHICH WAY YOU WALK," SAID THE CAT.

                                      -- LEWIS CARROLL
 Job cpu time:  0 days  1 hours 27 minutes 46.7 seconds.
 File lengths (MBytes):  RWF=    163 Int=      0 D2E=      0 Chk=      5 Scr=      1
 Normal termination of Gaussian 09 at Mon Feb 26 22:50:39 2018.
