 Entering Gaussian System, Link 0=g09
 Initial command:
 /home/fb_chem/chemsoft/lx24-amd64/Gaussian_09_C.01_NBO_3.1_64_istanbul-64/g09/l1.exe /local/2400026.1.parallel/Gau-21528.inp -scrdir=/local/2400026.1.parallel/
 Entering Link 1 = /home/fb_chem/chemsoft/lx24-amd64/Gaussian_09_C.01_NBO_3.1_64_istanbul-64/g09/l1.exe PID=     21530.
  
 Copyright (c) 1988,1990,1992,1993,1995,1998,2003,2009,2011,
            Gaussian, Inc.  All Rights Reserved.
  
 This is part of the Gaussian(R) 09 program.  It is based on
 the Gaussian(R) 03 system (copyright 2003, Gaussian, Inc.),
 the Gaussian(R) 98 system (copyright 1998, Gaussian, Inc.),
 the Gaussian(R) 94 system (copyright 1995, Gaussian, Inc.),
 the Gaussian 92(TM) system (copyright 1992, Gaussian, Inc.),
 the Gaussian 90(TM) system (copyright 1990, Gaussian, Inc.),
 the Gaussian 88(TM) system (copyright 1988, Gaussian, Inc.),
 the Gaussian 86(TM) system (copyright 1986, Carnegie Mellon
 University), and the Gaussian 82(TM) system (copyright 1983,
 Carnegie Mellon University). Gaussian is a federally registered
 trademark of Gaussian, Inc.
  
 This software contains proprietary and confidential information,
 including trade secrets, belonging to Gaussian, Inc.
  
 This software is provided under written license and may be
 used, copied, transmitted, or stored only in accord with that
 written license.
  
 The following legend is applicable only to US Government
 contracts under FAR:
  
                    RESTRICTED RIGHTS LEGEND
  
 Use, reproduction and disclosure by the US Government is
 subject to restrictions as set forth in subparagraphs (a)
 and (c) of the Commercial Computer Software - Restricted
 Rights clause in FAR 52.227-19.
  
 Gaussian, Inc.
 340 Quinnipiac St., Bldg. 40, Wallingford CT 06492
  
  
 ---------------------------------------------------------------
 Warning -- This program may not be used in any manner that
 competes with the business of Gaussian, Inc. or will provide
 assistance to any competitor of Gaussian, Inc.  The licensee
 of this program is prohibited from giving any competitor of
 Gaussian, Inc. access to this program.  By using this program,
 the user acknowledges that Gaussian, Inc. is engaged in the
 business of creating and licensing software in the field of
 computational chemistry and represents and warrants to the
 licensee that it is not a competitor of Gaussian, Inc. and that
 it will not use this program in any manner prohibited above.
 ---------------------------------------------------------------
  

 Cite this work as:
 Gaussian 09, Revision C.01,
 M. J. Frisch, G. W. Trucks, H. B. Schlegel, G. E. Scuseria, 
 M. A. Robb, J. R. Cheeseman, G. Scalmani, V. Barone, B. Mennucci, 
 G. A. Petersson, H. Nakatsuji, M. Caricato, X. Li, H. P. Hratchian, 
 A. F. Izmaylov, J. Bloino, G. Zheng, J. L. Sonnenberg, M. Hada, 
 M. Ehara, K. Toyota, R. Fukuda, J. Hasegawa, M. Ishida, T. Nakajima, 
 Y. Honda, O. Kitao, H. Nakai, T. Vreven, J. A. Montgomery, Jr., 
 J. E. Peralta, F. Ogliaro, M. Bearpark, J. J. Heyd, E. Brothers, 
 K. N. Kudin, V. N. Staroverov, T. Keith, R. Kobayashi, J. Normand, 
 K. Raghavachari, A. Rendell, J. C. Burant, S. S. Iyengar, J. Tomasi, 
 M. Cossi, N. Rega, J. M. Millam, M. Klene, J. E. Knox, J. B. Cross, 
 V. Bakken, C. Adamo, J. Jaramillo, R. Gomperts, R. E. Stratmann, 
 O. Yazyev, A. J. Austin, R. Cammi, C. Pomelli, J. W. Ochterski, 
 R. L. Martin, K. Morokuma, V. G. Zakrzewski, G. A. Voth, 
 P. Salvador, J. J. Dannenberg, S. Dapprich, A. D. Daniels, 
 O. Farkas, J. B. Foresman, J. V. Ortiz, J. Cioslowski, 
 and D. J. Fox, Gaussian, Inc., Wallingford CT, 2010.
 
 ******************************************
 Gaussian 09:  AM64L-G09RevC.01 23-Sep-2011
                17-Feb-2018 
 ******************************************
 %nprocs=2
 Will use up to    2 processors via shared memory.
 %chk=frag23-conf2.chk
 ----------------------------------------------------------------------
 #HF/6-31G* Geom=AllCheck Guess=Read Pop=(MK,ReadRadii) Integral=(Grid=
 UltraFine) iop(6/33=2)
 ----------------------------------------------------------------------
 1/29=7,38=1/1;
 2/12=2,40=1/2;
 3/5=1,6=6,7=1,11=9,14=-4,16=1,25=1,30=1,75=-5,116=-2/1,2,3;
 4/5=1/1;
 5/5=2,38=6/2;
 6/7=2,8=2,9=2,10=2,15=8,20=101,28=1,33=2/1,2;
 99/5=1,9=1/99;
 Structure from the checkpoint file:  frag23-conf2.chk
 -----------------------------
 Optimization for frag23-conf2
 -----------------------------
 Charge =  0 Multiplicity = 1
 Redundant internal coordinates found in file.
 C,0,-2.2074910593,-1.4403989542,2.4755666254
 C,0,-3.8563734717,-0.0167479899,3.5712152824
 C,0,-4.6438292898,-1.5706994245,1.8395369169
 C,0,-2.0890914442,-5.5491986808,-0.1989904305
 C,0,-1.891130299,-2.5922958684,1.5043409141
 N,0,-2.3970345817,-3.8694499448,2.012458829
 N,0,-3.5220186657,-1.0547413927,2.6040166025
 O,0,-1.3014704593,-0.9066100543,3.1000252411
 O,0,-2.4355331644,-6.3494406003,2.2976808204
 O,0,-0.2525895468,-5.1618534909,1.6499913777
 S,0,-1.7013962965,-5.3252780867,1.5556924817
 H,0,-4.2685757389,0.8650116118,3.0630455075
 H,0,-2.9482542974,0.2624532757,4.1029287742
 H,0,-4.6039584521,-0.3879614941,4.2838279112
 H,0,-5.3475675117,-2.1178721937,2.4838012185
 H,0,-4.3138563457,-2.2342427271,1.0398534477
 H,0,-5.194885501,-0.7425961747,1.3748113038
 H,0,-1.611399729,-6.4793867437,-0.5153077692
 H,0,-3.1713947444,-5.6241556055,-0.323087718
 H,0,-1.6821923651,-4.7127589035,-0.7716403354
 H,0,-2.2473733261,-2.3614433605,0.4871718037
 H,0,-0.8039981283,-2.6605108712,1.4834123307
 H,0,-3.3936480831,-3.9625578163,2.1765319223
 Recover connectivity data from disk.
                          Input orientation:                          
 ---------------------------------------------------------------------
 Center     Atomic      Atomic             Coordinates (Angstroms)
 Number     Number       Type             X           Y           Z
 ---------------------------------------------------------------------
      1          6           0       -2.207491   -1.440399    2.475567
      2          6           0       -3.856373   -0.016748    3.571215
      3          6           0       -4.643829   -1.570699    1.839537
      4          6           0       -2.089091   -5.549199   -0.198990
      5          6           0       -1.891130   -2.592296    1.504341
      6          7           0       -2.397035   -3.869450    2.012459
      7          7           0       -3.522019   -1.054741    2.604017
      8          8           0       -1.301470   -0.906610    3.100025
      9          8           0       -2.435533   -6.349441    2.297681
     10          8           0       -0.252590   -5.161853    1.649991
     11         16           0       -1.701396   -5.325278    1.555692
     12          1           0       -4.268576    0.865012    3.063046
     13          1           0       -2.948254    0.262453    4.102929
     14          1           0       -4.603958   -0.387961    4.283828
     15          1           0       -5.347568   -2.117872    2.483801
     16          1           0       -4.313856   -2.234243    1.039853
     17          1           0       -5.194886   -0.742596    1.374811
     18          1           0       -1.611400   -6.479387   -0.515308
     19          1           0       -3.171395   -5.624156   -0.323088
     20          1           0       -1.682192   -4.712759   -0.771640
     21          1           0       -2.247373   -2.361443    0.487172
     22          1           0       -0.803998   -2.660511    1.483412
     23          1           0       -3.393648   -3.962558    2.176532
 ---------------------------------------------------------------------
                    Distance matrix (angstroms):
                    1          2          3          4          5
     1  C    0.000000
     2  C    2.438451   0.000000
     3  C    2.521360   2.456331   0.000000
     4  C    4.904030   6.924287   5.148858   0.000000
     5  C    1.539555   3.842863   2.955227   3.418157   0.000000
     6  N    2.480057   4.404850   3.219044   2.794082   1.464666
     7  N    1.375941   1.457634   1.452274   5.487283   2.496629
     8  O    1.223010   2.746162   3.633347   5.749563   2.394879
     9  O    4.917554   6.613900   5.284206   2.644575   3.878389
    10  O    4.283975   6.568902   5.675852   2.634674   3.051009
    11  S    4.024250   6.073446   4.778634   1.810900   2.740042
    12  H    3.147717   1.098020   2.751450   7.518851   4.476023
    13  H    2.469158   1.088739   3.370218   7.281481   4.002470
    14  H    3.181272   1.097497   2.715698   7.284132   4.465879
    15  H    3.212338   2.796579   1.099874   5.439581   3.623724
    16  H    2.669875   3.396228   1.090259   4.180101   2.492700
    17  H    3.259312   2.672576   1.097902   5.935169   3.788531
    18  H    5.889996   7.969020   6.231864   1.092472   4.389386
    19  H    5.124978   6.861327   4.824471   1.091970   3.764405
    20  H    4.639896   6.755737   5.045996   1.092303   3.117709
    21  H    2.191718   4.194973   2.863070   3.264607   1.102196
    22  H    2.107804   4.545921   4.007345   3.581405   1.089471
    23  H    2.803155   4.210543   2.719836   3.140446   2.141733
                    6          7          8          9         10
     6  N    0.000000
     7  N    3.088384   0.000000
     8  O    3.340880   2.280088   0.000000
     9  O    2.496635   5.413699   5.617318   0.000000
    10  O    2.529888   5.335513   4.616259   2.568094   0.000000
    11  S    1.676897   4.759321   4.697822   1.462331   1.461041
    12  H    5.198223   2.110333   3.455969   7.482924   7.378887
    13  H    4.663318   2.076282   2.254866   6.873059   6.535030
    14  H    4.706420   2.106408   3.546380   6.647261   6.975783
    15  H    3.463500   2.115970   4.268230   5.140112   5.993318
    16  H    2.700754   2.113016   3.883476   4.695219   5.043517
    17  H    4.244029   2.099253   4.261683   6.316836   6.635650
    18  H    3.717337   6.542738   6.650002   2.934107   2.875896
    19  H    3.022152   5.437869   6.121238   2.817083   3.553335
    20  H    2.995560   5.306705   5.442565   3.559070   2.847762
    21  H    2.150112   2.795214   3.136603   4.383773   3.629547
    22  H    2.068620   3.349908   2.436613   4.114990   2.566810
    23  H    1.014311   2.941873   3.816918   2.574854   3.403205
                   11         12         13         14         15
    11  S    0.000000
    12  H    6.868931   0.000000
    13  H    6.266244   1.785408   0.000000
    14  H    6.343870   1.781217   1.788049   0.000000
    15  H    4.944027   3.224491   3.747563   2.604926   0.000000
    16  H    4.079894   3.701450   4.181004   3.743833   1.779631
    17  H    5.765254   2.508503   3.674248   2.989538   1.773289
    18  H    2.372574   8.591006   8.280561   8.312194   6.478921
    19  H    2.404171   7.401283   7.368282   7.119947   4.990829
    20  H    2.406663   7.246083   7.079341   7.266247   5.546739
    21  H    3.197521   4.596781   4.522142   4.884948   3.695546
    22  H    2.812745   5.189205   4.472518   5.238941   4.683936
    23  H    2.259682   4.985663   4.664772   4.322417   2.704641
                   16         17         18         19         20
    16  H    0.000000
    17  H    1.764488   0.000000
    18  H    5.267167   7.023154   0.000000
    19  H    3.828098   5.550405   1.789400   0.000000
    20  H    4.043539   5.719131   1.786531   1.802656   0.000000
    21  H    2.142893   3.477988   4.285660   3.486492   2.726302
    22  H    3.563363   4.792711   4.385270   4.201333   3.173044
    23  H    2.264044   3.775628   4.093512   3.009718   3.490502
                   21         22         23
    21  H    0.000000
    22  H    1.779120   0.000000
    23  H    2.594504   2.980273   0.000000
 Stoichiometry    C5H12N2O3S
 Framework group  C1[X(C5H12N2O3S)]
 Deg. of freedom    63
 Full point group                 C1      NOp   1
 Largest Abelian subgroup         C1      NOp   1
 Largest concise Abelian subgroup C1      NOp   1
                         Standard orientation:                         
 ---------------------------------------------------------------------
 Center     Atomic      Atomic             Coordinates (Angstroms)
 Number     Number       Type             X           Y           Z
 ---------------------------------------------------------------------
      1          6           0        1.770637   -0.730349   -0.258065
      2          6           0        3.900701    0.138672    0.550435
      3          6           0        2.233773    1.748101   -0.264829
      4          6           0       -2.764794    0.900677   -1.163122
      5          6           0        0.343623   -0.466279   -0.771998
      6          7           0       -0.495298    0.127392    0.271560
      7          7           0        2.571789    0.359584   -0.006243
      8          8           0        2.151181   -1.879932   -0.086606
      9          8           0       -2.631776    0.624910    1.463670
     10          8           0       -2.445226   -1.456101   -0.029549
     11         16           0       -2.162579   -0.051160    0.254871
     12          1           0        4.673686    0.481566   -0.149968
     13          1           0        4.023632   -0.927620    0.732815
     14          1           0        4.015094    0.691390    1.491666
     15          1           0        2.155450    2.320505    0.671088
     16          1           0        1.293443    1.838066   -0.809211
     17          1           0        3.015273    2.217813   -0.876398
     18          1           0       -3.847883    0.763462   -1.202952
     19          1           0       -2.527196    1.956378   -1.016695
     20          1           0       -2.310758    0.516329   -2.079230
     21          1           0        0.360927    0.127036   -1.700713
     22          1           0       -0.067686   -1.449737   -0.996905
     23          1           0       -0.215229    1.018605    0.666691
 ---------------------------------------------------------------------
 Rotational constants (GHZ):      1.9528199      0.4690198      0.4307111
 Standard basis: 6-31G(d) (6D, 7F)
 There are   193 symmetry adapted basis functions of A   symmetry.
 Integral buffers will be    131072 words long.
 Raffenetti 1 integral format.
 Two-electron integral symmetry is turned on.
   193 basis functions,   380 primitive gaussians,   193 cartesian basis functions
    48 alpha electrons       48 beta electrons
       nuclear repulsion energy       789.4798670142 Hartrees.
 NAtoms=   23 NActive=   23 NUniq=   23 SFac= 1.00D+00 NAtFMM=   60 NAOKFM=F Big=F
 One-electron integrals computed using PRISM.
 NBasis=   193 RedAO= T  NBF=   193
 NBsUse=   193 1.00D-06 NBFU=   193
 Initial guess read from the checkpoint file:  frag23-conf2.chk
 B after Tr=     0.000000    0.000000    0.000000
         Rot=    1.000000    0.000000    0.000000    0.000000 Ang=   0.00 deg.
 Initial guess orbital symmetries:
       Occupied  (A) (A) (A) (A) (A) (A) (A) (A) (A) (A) (A) (A)
                 (A) (A) (A) (A) (A) (A) (A) (A) (A) (A) (A) (A)
                 (A) (A) (A) (A) (A) (A) (A) (A) (A) (A) (A) (A)
                 (A) (A) (A) (A) (A) (A) (A) (A) (A) (A) (A) (A)
       Virtual   (A) (A) (A) (A) (A) (A) (A) (A) (A) (A) (A) (A)
                 (A) (A) (A) (A) (A) (A) (A) (A) (A) (A) (A) (A)
                 (A) (A) (A) (A) (A) (A) (A) (A) (A) (A) (A) (A)
                 (A) (A) (A) (A) (A) (A) (A) (A) (A) (A) (A) (A)
                 (A) (A) (A) (A) (A) (A) (A) (A) (A) (A) (A) (A)
                 (A) (A) (A) (A) (A) (A) (A) (A) (A) (A) (A) (A)
                 (A) (A) (A) (A) (A) (A) (A) (A) (A) (A) (A) (A)
                 (A) (A) (A) (A) (A) (A) (A) (A) (A) (A) (A) (A)
                 (A) (A) (A) (A) (A) (A) (A) (A) (A) (A) (A) (A)
                 (A) (A) (A) (A) (A) (A) (A) (A) (A) (A) (A) (A)
                 (A) (A) (A) (A) (A) (A) (A) (A) (A) (A) (A) (A)
                 (A) (A) (A) (A) (A) (A) (A) (A) (A) (A) (A) (A)
                 (A)
 Requested convergence on RMS density matrix=1.00D-08 within 128 cycles.
 Requested convergence on MAX density matrix=1.00D-06.
 Requested convergence on             energy=1.00D-06.
 No special actions if energy rises.
 SCF Done:  E(RHF) =  -927.233452523     A.U. after   13 cycles
             Convg  =    0.6999D-08             -V/T =  2.0023

 **********************************************************************

            Population analysis using the SCF density.

 **********************************************************************

 Orbital symmetries:
 BldTbl:  Degeneracy threshold= 1.00D-02
       Occupied  (A) (A) (A) (A) (A) (A) (A) (A) (A) (A) (A) (A)
                 (A) (A) (A) (A) (A) (A) (A) (A) (A) (A) (A) (A)
                 (A) (A) (A) (A) (A) (A) (A) (A) (A) (A) (A) (A)
                 (A) (A) (A) (A) (A) (A) (A) (A) (A) (A) (A) (A)
       Virtual   (A) (A) (A) (A) (A) (A) (A) (A) (A) (A) (A) (A)
                 (A) (A) (A) (A) (A) (A) (A) (A) (A) (A) (A) (A)
                 (A) (A) (A) (A) (A) (A) (A) (A) (A) (A) (A) (A)
                 (A) (A) (A) (A) (A) (A) (A) (A) (A) (A) (A) (A)
                 (A) (A) (A) (A) (A) (A) (A) (A) (A) (A) (A) (A)
                 (A) (A) (A) (A) (A) (A) (A) (A) (A) (A) (A) (A)
                 (A) (A) (A) (A) (A) (A) (A) (A) (A) (A) (A) (A)
                 (A) (A) (A) (A) (A) (A) (A) (A) (A) (A) (A) (A)
                 (A) (A) (A) (A) (A) (A) (A) (A) (A) (A) (A) (A)
                 (A) (A) (A) (A) (A) (A) (A) (A) (A) (A) (A) (A)
                 (A) (A) (A) (A) (A) (A) (A) (A) (A) (A) (A) (A)
                 (A) (A) (A) (A) (A) (A) (A) (A) (A) (A) (A) (A)
                 (A)
 The electronic state is 1-A.
 Alpha  occ. eigenvalues --  -92.22178 -20.56307 -20.56273 -20.53743 -15.62293
 Alpha  occ. eigenvalues --  -15.61018 -11.37120 -11.30344 -11.29526 -11.28927
 Alpha  occ. eigenvalues --  -11.26659  -9.19200  -6.87808  -6.87785  -6.87684
 Alpha  occ. eigenvalues --   -1.46158  -1.39097  -1.34366  -1.26209  -1.24386
 Alpha  occ. eigenvalues --   -1.04963  -1.00918  -0.99062  -0.93344  -0.84586
 Alpha  occ. eigenvalues --   -0.76981  -0.72877  -0.71492  -0.69868  -0.67421
 Alpha  occ. eigenvalues --   -0.66444  -0.66044  -0.64759  -0.61855  -0.60665
 Alpha  occ. eigenvalues --   -0.59918  -0.58923  -0.57628  -0.56069  -0.54581
 Alpha  occ. eigenvalues --   -0.53204  -0.50930  -0.49686  -0.47285  -0.46440
 Alpha  occ. eigenvalues --   -0.46140  -0.41451  -0.38333
 Alpha virt. eigenvalues --    0.16129   0.19044   0.21175   0.23016   0.23922
 Alpha virt. eigenvalues --    0.25162   0.26022   0.26314   0.27232   0.27638
 Alpha virt. eigenvalues --    0.28862   0.29751   0.30279   0.31305   0.32053
 Alpha virt. eigenvalues --    0.32344   0.35119   0.35596   0.38013   0.40283
 Alpha virt. eigenvalues --    0.44040   0.49246   0.51336   0.54972   0.57898
 Alpha virt. eigenvalues --    0.63654   0.65635   0.67635   0.69941   0.71710
 Alpha virt. eigenvalues --    0.72689   0.73508   0.74115   0.76935   0.78383
 Alpha virt. eigenvalues --    0.83904   0.86929   0.88972   0.89940   0.92510
 Alpha virt. eigenvalues --    0.92800   0.94912   0.98419   0.99805   1.00782
 Alpha virt. eigenvalues --    1.05269   1.05487   1.06017   1.08452   1.09352
 Alpha virt. eigenvalues --    1.10850   1.11551   1.11925   1.12261   1.12622
 Alpha virt. eigenvalues --    1.14097   1.16546   1.17054   1.17676   1.20736
 Alpha virt. eigenvalues --    1.20912   1.21591   1.23120   1.25259   1.26411
 Alpha virt. eigenvalues --    1.29046   1.31577   1.32046   1.34553   1.39253
 Alpha virt. eigenvalues --    1.39976   1.44471   1.45746   1.48694   1.49616
 Alpha virt. eigenvalues --    1.54197   1.54930   1.59393   1.61498   1.65791
 Alpha virt. eigenvalues --    1.67900   1.69826   1.75153   1.78158   1.82241
 Alpha virt. eigenvalues --    1.84511   1.91683   1.92332   1.99345   2.02766
 Alpha virt. eigenvalues --    2.05300   2.06706   2.08169   2.10203   2.10588
 Alpha virt. eigenvalues --    2.13575   2.14906   2.15494   2.19158   2.22321
 Alpha virt. eigenvalues --    2.22890   2.25557   2.28759   2.29914   2.32844
 Alpha virt. eigenvalues --    2.36005   2.36491   2.38310   2.40473   2.40696
 Alpha virt. eigenvalues --    2.43895   2.45163   2.51412   2.51759   2.54671
 Alpha virt. eigenvalues --    2.56853   2.59586   2.62097   2.63141   2.66560
 Alpha virt. eigenvalues --    2.69601   2.72675   2.78553   2.86070   2.88359
 Alpha virt. eigenvalues --    2.94885   2.97114   3.00769   3.09017   3.11651
 Alpha virt. eigenvalues --    3.19287   3.28950   3.35741   3.52806   4.13051
 Alpha virt. eigenvalues --    4.31264   4.35463   4.36715   4.40732   4.50616
 Alpha virt. eigenvalues --    4.59797   4.63121   4.74483   4.74815   4.95892
          Condensed to atoms (all electrons):
              1          2          3          4          5          6
     1  C    4.149231  -0.028839  -0.025778  -0.000102   0.343903  -0.037362
     2  C   -0.028839   4.973885  -0.049803   0.000000   0.003676  -0.000196
     3  C   -0.025778  -0.049803   4.952295  -0.000005   0.000319  -0.003634
     4  C   -0.000102   0.000000  -0.000005   5.527313   0.000213  -0.064310
     5  C    0.343903   0.003676   0.000319   0.000213   5.189250   0.160460
     6  N   -0.037362  -0.000196  -0.003634  -0.064310   0.160460   7.508777
     7  N    0.281134   0.211560   0.227008   0.000005  -0.120031   0.006033
     8  O    0.608414  -0.007461   0.001827   0.000001  -0.069490   0.000845
     9  O   -0.000050   0.000000  -0.000003  -0.059181   0.001350  -0.055735
    10  O   -0.000192   0.000000   0.000000  -0.060883  -0.001097  -0.053754
    11  S   -0.000140   0.000002  -0.000100   0.292568  -0.011719   0.189385
    12  H    0.000476   0.399536  -0.002168   0.000000  -0.000127   0.000000
    13  H   -0.004679   0.395161   0.003112   0.000000   0.000607  -0.000025
    14  H    0.001916   0.398550  -0.002041   0.000000  -0.000023   0.000004
    15  H    0.000812  -0.000912   0.398230   0.000001   0.000005  -0.000173
    16  H   -0.003191   0.003569   0.396787   0.000004  -0.001020  -0.000186
    17  H    0.000492  -0.001931   0.401432   0.000000  -0.000333   0.000143
    18  H    0.000002   0.000000   0.000000   0.367834  -0.000006   0.002076
    19  H   -0.000008   0.000000  -0.000004   0.354004   0.000217   0.000979
    20  H    0.000013   0.000000   0.000000   0.355957   0.000193  -0.000690
    21  H   -0.039732  -0.000203  -0.002777   0.001455   0.386265  -0.052735
    22  H   -0.029445  -0.000058   0.000158  -0.000196   0.388515  -0.027669
    23  H   -0.003898  -0.000058   0.000623   0.000090  -0.020739   0.307460
              7          8          9         10         11         12
     1  C    0.281134   0.608414  -0.000050  -0.000192  -0.000140   0.000476
     2  C    0.211560  -0.007461   0.000000   0.000000   0.000002   0.399536
     3  C    0.227008   0.001827  -0.000003   0.000000  -0.000100  -0.002168
     4  C    0.000005   0.000001  -0.059181  -0.060883   0.292568   0.000000
     5  C   -0.120031  -0.069490   0.001350  -0.001097  -0.011719  -0.000127
     6  N    0.006033   0.000845  -0.055735  -0.053754   0.189385   0.000000
     7  N    7.402609  -0.097122   0.000001  -0.000001  -0.000082  -0.048021
     8  O   -0.097122   8.145372   0.000000   0.000005  -0.000096   0.000416
     9  O    0.000001   0.000000   8.329243  -0.034386   0.494093   0.000000
    10  O   -0.000001   0.000005  -0.034386   8.337412   0.484137   0.000000
    11  S   -0.000082  -0.000096   0.494093   0.484137  12.997665   0.000000
    12  H   -0.048021   0.000416   0.000000   0.000000   0.000000   0.541217
    13  H   -0.030467   0.011660   0.000000   0.000000   0.000000  -0.021519
    14  H   -0.048100   0.000450   0.000000   0.000000   0.000000  -0.039711
    15  H   -0.051265  -0.000020   0.000001   0.000000  -0.000021  -0.000841
    16  H   -0.036860   0.000054  -0.000007   0.000000   0.000083  -0.000026
    17  H   -0.046592  -0.000012   0.000000   0.000000   0.000003   0.004302
    18  H    0.000000   0.000000   0.000049   0.000373  -0.015337   0.000000
    19  H    0.000000   0.000000   0.000919   0.001749  -0.013857   0.000000
    20  H    0.000000   0.000000   0.001652   0.000695  -0.013732   0.000000
    21  H    0.003743   0.001760  -0.000030  -0.000044  -0.005639   0.000002
    22  H    0.003229   0.005665   0.000021   0.005595  -0.000683   0.000002
    23  H    0.001153   0.000026   0.001920   0.001099  -0.003092   0.000002
             13         14         15         16         17         18
     1  C   -0.004679   0.001916   0.000812  -0.003191   0.000492   0.000002
     2  C    0.395161   0.398550  -0.000912   0.003569  -0.001931   0.000000
     3  C    0.003112  -0.002041   0.398230   0.396787   0.401432   0.000000
     4  C    0.000000   0.000000   0.000001   0.000004   0.000000   0.367834
     5  C    0.000607  -0.000023   0.000005  -0.001020  -0.000333  -0.000006
     6  N   -0.000025   0.000004  -0.000173  -0.000186   0.000143   0.002076
     7  N   -0.030467  -0.048100  -0.051265  -0.036860  -0.046592   0.000000
     8  O    0.011660   0.000450  -0.000020   0.000054  -0.000012   0.000000
     9  O    0.000000   0.000000   0.000001  -0.000007   0.000000   0.000049
    10  O    0.000000   0.000000   0.000000   0.000000   0.000000   0.000373
    11  S    0.000000   0.000000  -0.000021   0.000083   0.000003  -0.015337
    12  H   -0.021519  -0.039711  -0.000841  -0.000026   0.004302   0.000000
    13  H    0.422540  -0.020516  -0.000051  -0.000092  -0.000028   0.000000
    14  H   -0.020516   0.538502   0.003722  -0.000046  -0.001308   0.000000
    15  H   -0.000051   0.003722   0.538913  -0.029692  -0.039506   0.000000
    16  H   -0.000092  -0.000046  -0.029692   0.526984  -0.023729   0.000001
    17  H   -0.000028  -0.001308  -0.039506  -0.023729   0.517811   0.000000
    18  H    0.000000   0.000000   0.000000   0.000001   0.000000   0.433181
    19  H    0.000000   0.000000   0.000000   0.000054   0.000000  -0.016044
    20  H    0.000000   0.000000   0.000000  -0.000002   0.000000  -0.017130
    21  H   -0.000022  -0.000001   0.000207  -0.005295   0.000029  -0.000053
    22  H   -0.000010   0.000001  -0.000007   0.000268   0.000004   0.000002
    23  H   -0.000002  -0.000004   0.000163   0.000531   0.000076  -0.000019
             19         20         21         22         23
     1  C   -0.000008   0.000013  -0.039732  -0.029445  -0.003898
     2  C    0.000000   0.000000  -0.000203  -0.000058  -0.000058
     3  C   -0.000004   0.000000  -0.002777   0.000158   0.000623
     4  C    0.354004   0.355957   0.001455  -0.000196   0.000090
     5  C    0.000217   0.000193   0.386265   0.388515  -0.020739
     6  N    0.000979  -0.000690  -0.052735  -0.027669   0.307460
     7  N    0.000000   0.000000   0.003743   0.003229   0.001153
     8  O    0.000000   0.000000   0.001760   0.005665   0.000026
     9  O    0.000919   0.001652  -0.000030   0.000021   0.001920
    10  O    0.001749   0.000695  -0.000044   0.005595   0.001099
    11  S   -0.013857  -0.013732  -0.005639  -0.000683  -0.003092
    12  H    0.000000   0.000000   0.000002   0.000002   0.000002
    13  H    0.000000   0.000000  -0.000022  -0.000010  -0.000002
    14  H    0.000000   0.000000  -0.000001   0.000001  -0.000004
    15  H    0.000000   0.000000   0.000207  -0.000007   0.000163
    16  H    0.000054  -0.000002  -0.005295   0.000268   0.000531
    17  H    0.000000   0.000000   0.000029   0.000004   0.000076
    18  H   -0.016044  -0.017130  -0.000053   0.000002  -0.000019
    19  H    0.478667  -0.020525  -0.000010  -0.000008   0.000074
    20  H   -0.020525   0.475035   0.000812   0.000098   0.000076
    21  H   -0.000010   0.000812   0.558095  -0.021062  -0.000023
    22  H   -0.000008   0.000098  -0.021062   0.394816   0.002187
    23  H    0.000074   0.000076  -0.000023   0.002187   0.299384
 Mulliken atomic charges:
              1
     1  C    0.787022
     2  C   -0.296478
     3  C   -0.295477
     4  C   -0.714768
     5  C   -0.250386
     6  N   -0.879695
     7  N   -0.657933
     8  O   -0.602293
     9  O   -0.679856
    10  O   -0.680707
    11  S    1.606563
    12  H    0.166461
    13  H    0.244331
    14  H    0.168607
    15  H    0.180434
    16  H    0.171811
    17  H    0.189147
    18  H    0.245071
    19  H    0.213793
    20  H    0.217548
    21  H    0.175258
    22  H    0.278576
    23  H    0.412972
 Sum of Mulliken atomic charges =   0.00000
 Mulliken charges with hydrogens summed into heavy atoms:
              1
     1  C    0.787022
     2  C    0.282921
     3  C    0.245916
     4  C   -0.038357
     5  C    0.203447
     6  N   -0.466723
     7  N   -0.657933
     8  O   -0.602293
     9  O   -0.679856
    10  O   -0.680707
    11  S    1.606563
 Sum of Mulliken charges with hydrogens summed into heavy atoms =   0.00000
 DipInt: DoE/N= T F RetVal/Mat= T F Init=T NMatP=  1 IDeriv=0 Min/MaxMlt=  0  4
 Entering OneElI...
 OneElI was handed    33456291 working-precision words.
 Multipole integrals L=0 to 4 MinM= 0 MaxM= 0.
 Requested accuracy = 0.1000D-12
 PrsmSu:  NPrtUS=   1 ThrOK=F IAlg=1 NPAlg=1 LenDen=           0.
 Prism:   IPart=     0 DynPar=F LinDyn=F Incr=          21.
 PRISM was handed    33264146 working-precision words and  2146 shell-pairs
 IPart=  0 NShTot=        2146 NBatch=          61 AvBLen=        35.2
 PrSmSu:  NxtVal=             22.
 Electronic moments (au):
        -96.00000000          0.97778662          2.66449492         -1.65947681
      -2005.17438632       -418.33429916       -230.09709053          2.15771839
          8.22266755         -1.62706943      -1922.30838552         76.93859316
         -5.57148006       -489.92906293       -412.10820485       -504.01977648
        426.20280791       -185.99745689        130.33355227        -30.98240236
     -68186.42197740      -5079.97955918      -1905.82108748       -625.58158731
      -3296.04191059       -501.63938342        198.24535473         -1.38780168
        -19.89405523      -8352.90727943      -5443.62588017       -789.32507414
        354.73055295         39.88598583        632.78866635
 Electronic spatial extent (au):  <R**2>=           2653.6058
 DipInt: DoE/N= F T RetVal/Mat= T F Init=T NMatP=  1 IDeriv=0 Min/MaxMlt=  0  4
 Nuclear    moments (au):
         96.00000000          0.00000000          0.00000000          0.00000000
       1949.80553886        358.27458380        174.57233663          0.00000000
          0.00000000          0.00000000       1951.00351303        -45.30463237
         -3.48552414        484.19659285        458.44521457        473.29494866
       -417.90150896        180.05263394       -130.42937564         40.87962632
      61728.57521187       3639.23679378       1127.41438948        613.98104603
       3549.57478701        541.49255343       -195.34564332         40.01259105
         22.22728645       6853.05989959       4134.84551866        437.69411355
       -437.38624244        -33.09854615       -614.87937368
 Total      moments (au):
          0.00000000          0.97778662          2.66449492         -1.65947681
        -55.36884746        -60.05971536        -55.52475390          2.15771839
          8.22266755         -1.62706943         28.69512751         31.63396079
         -9.05700420         -5.73247008         46.33700972        -30.72482783
          8.30129896         -5.94482295         -0.09582337          9.89722396
      -6457.84676553      -1440.74276540       -778.40669800        -11.60054128
        253.53287642         39.85317001          2.89971141         38.62478937
          2.33323122      -1499.84737983      -1308.78036151       -351.63096059
        -82.65568948          6.78743968         17.90929267
 Traceless Quadrup. (au):
          1.61559145         -3.07527645          1.45968501          2.15771839
          8.22266755         -1.62706943
 Charge=              0.0000 electrons
 Dipole moment (field-independent basis, Debye):
    X=              2.4853    Y=              6.7725    Z=             -4.2180  Tot=              8.3567
 Quadrupole moment (field-independent basis, Debye-Ang):
   XX=            -74.4730   YY=            -80.7824   ZZ=            -74.6827
   XY=              2.9022   XZ=             11.0598   YZ=             -2.1885
 Traceless Quadrupole moment (field-independent basis, Debye-Ang):
   XX=              2.1730   YY=             -4.1364   ZZ=              1.9633
   XY=              2.9022   XZ=             11.0598   YZ=             -2.1885
 Octapole moment (field-independent basis, Debye-Ang**2):
  XXX=             20.4241  YYY=             22.5158  ZZZ=             -6.4464  XYY=             -4.0802
  XXY=             32.9809  XXZ=            -21.8687  XZZ=              5.9085  YZZ=             -4.2313
  YYZ=             -0.0682  XYZ=              7.0445
 Hexadecapole moment (field-independent basis, Debye-Ang**3):
 XXXX=          -2432.3346 YYYY=           -542.6528 ZZZZ=           -293.1853 XXXY=             -4.3693
 XXXZ=             95.4926 YYYX=             15.0106 YYYZ=              1.0922 ZZZX=             14.5479
 ZZZY=              0.8788 XXYY=           -564.9144 XXZZ=           -492.9494 YYZZ=           -132.4411
 XXYZ=            -31.1321 YYXZ=              2.5565 ZZXY=              6.7455
 N-N= 7.894798670142D+02 E-N=-3.765755533981D+03  KE= 9.251078193433D+02
 Entering OneElI...
 OneElI was handed    33381025 working-precision words.
 Calculate electrostatic properties
    NBasis =   193  MinDer = 0  MaxDer = 0
    NGrid  =    23  NMatD  =   1
 Requested accuracy = 0.1000D-12
 PrsmSu:  NPrtUS=   2 ThrOK=T IAlg=1 NPAlg=1 LenDen=           0.
 Prism:   IPart=     0 DynPar=F LinDyn=F Incr=         227.
 PRISM was handed    16570453 working-precision words and  1977 shell-pairs
 PRISM was handed    16570453 working-precision words and  1977 shell-pairs
 IPart=  1 NShTot=       22379 NBatch=         973 AvBLen=        23.0
 IPart=  0 NShTot=       23092 NBatch=        1004 AvBLen=        23.0
 PrSmSu:  NxtVal=            455.
 --------------------------------------------------------
       Center         ----      EFG at Nuclei      ----
                      3XX-RR        3YY-RR        3ZZ-RR
 --------------------------------------------------------
     1   Atom        0.165650      0.265855     -0.431505
     2   Atom       -0.242232      0.200531      0.041702
     3   Atom        0.102389     -0.213374      0.110985
     4   Atom        0.075325      0.015554     -0.090879
     5   Atom       -0.059998      0.153066     -0.093068
     6   Atom       -0.725617      0.207509      0.518108
     7   Atom       -0.279321     -0.567163      0.846484
     8   Atom        1.238692     -0.674298     -0.564394
     9   Atom        0.536691      0.221444     -0.758134
    10   Atom        0.657875     -1.382739      0.724863
    11   Atom       -0.695424      0.404763      0.290661
    12   Atom       -0.075721      0.108681     -0.032960
    13   Atom        0.128375     -0.265105      0.136731
    14   Atom        0.130752      0.038841     -0.169593
    15   Atom        0.143801      0.022108     -0.165908
    16   Atom       -0.183507      0.134740      0.048767
    17   Atom       -0.074782      0.057858      0.016924
    18   Atom       -0.285342      0.142568      0.142774
    19   Atom        0.128325     -0.265107      0.136782
    20   Atom        0.069682      0.094303     -0.163986
    21   Atom        0.134239      0.016523     -0.150762
    22   Atom        0.076613     -0.201075      0.124462
    23   Atom        0.113612     -0.248389      0.134777
 --------------------------------------------------------
                        XY            XZ            YZ
 --------------------------------------------------------
     1   Atom       -0.094631      0.240243     -0.057931
     2   Atom        0.049935     -0.142422      0.008704
     3   Atom        0.083693     -0.022110      0.066175
     4   Atom        0.062516     -0.087003      0.137365
     5   Atom        0.138836      0.153120     -0.113070
     6   Atom       -0.209759      0.254883     -0.827569
     7   Atom       -0.044454     -0.553017      0.117651
     8   Atom        0.774103      0.667403      0.252112
     9   Atom        0.287705      0.671719     -1.003210
    10   Atom       -0.465687      0.016119     -0.546755
    11   Atom       -0.097377     -0.024013      0.201299
    12   Atom       -0.092934      0.188150      0.092738
    13   Atom        0.059867     -0.016265      0.077725
    14   Atom       -0.015955     -0.042753     -0.190455
    15   Atom        0.020556      0.024580     -0.184195
    16   Atom        0.027687     -0.194858      0.019979
    17   Atom       -0.123993      0.171305      0.105842
    18   Atom       -0.054910     -0.017223      0.007119
    19   Atom       -0.095896     -0.021394     -0.055451
    20   Atom        0.073199      0.153360     -0.126171
    21   Atom        0.002213      0.008458      0.190190
    22   Atom       -0.140653     -0.029076     -0.090005
    23   Atom       -0.140304     -0.041215     -0.214712
 --------------------------------------------------------


 ---------------------------------------------------------------------------------
              Nuclear Quadrupole in Principal Axis System
 ---------------------------------------------------------------------------------

       Atom             a.u.   MegaHertz   Gauss  10(-4) cm-1        Axes

              Baa    -0.5169   -69.357   -24.748   -23.135 -0.3282  0.0302  0.9441
     1 C(13)  Bbb     0.1497    20.084     7.167     6.699  0.6992  0.6798  0.2213
              Bcc     0.3672    49.273    17.582    16.436 -0.6352  0.7328 -0.2442
 
              Baa    -0.3062   -41.088   -14.661   -13.705  0.9202 -0.0972  0.3792
     2 C(13)  Bbb     0.0997    13.375     4.773     4.462 -0.3696  0.1033  0.9234
              Bcc     0.2065    27.712     9.888     9.244  0.1289  0.9899 -0.0591
 
              Baa    -0.2477   -33.236   -11.859   -11.086 -0.2396  0.9520 -0.1904
     3 C(13)  Bbb     0.1184    15.890     5.670     5.300  0.6942  0.3051  0.6519
              Bcc     0.1293    17.346     6.189     5.786 -0.6787 -0.0240  0.7340
 
              Baa    -0.2234   -29.976   -10.696    -9.999  0.3375 -0.5340  0.7752
     4 C(13)  Bbb     0.1086    14.579     5.202     4.863 -0.3823  0.6748  0.6313
              Bcc     0.1147    15.397     5.494     5.136  0.8602  0.5095 -0.0236
 
              Baa    -0.2999   -40.248   -14.361   -13.425 -0.6417  0.3650  0.6745
     5 C(13)  Bbb     0.0733     9.831     3.508     3.279  0.6747 -0.1496  0.7228
              Bcc     0.2267    30.417    10.853    10.146  0.3648  0.9189 -0.1503
 
              Baa    -0.7805   -30.102   -10.741   -10.041  0.9864  0.1014 -0.1290
     6 N(14)  Bbb    -0.4792   -18.482    -6.595    -6.165  0.0043  0.7701  0.6379
              Bcc     1.2597    48.584    17.336    16.206  0.1640 -0.6298  0.7592
 
              Baa    -0.5769   -22.250    -7.939    -7.422 -0.0151  0.9960 -0.0882
     7 N(14)  Bbb    -0.5054   -19.491    -6.955    -6.501  0.9260  0.0472  0.3747
              Bcc     1.0823    41.741    14.894    13.923 -0.3773  0.0760  0.9229
 
              Baa    -0.9496    68.709    24.517    22.919 -0.3096  0.9472 -0.0835
     8 O(17)  Bbb    -0.7845    56.766    20.255    18.935 -0.3075 -0.0166  0.9514
              Bcc     1.7341  -125.475   -44.772   -41.854  0.8998  0.3202  0.2964
 
              Baa    -1.6264   117.684    41.992    39.255 -0.3173  0.4902  0.8118
     9 O(17)  Bbb     0.7014   -50.752   -18.110   -16.929  0.7667  0.6364 -0.0846
              Bcc     0.9250   -66.931   -23.883   -22.326 -0.5581  0.5956 -0.5777
 
              Baa    -1.6053   116.159    41.448    38.746  0.1950  0.9552  0.2228
    10 O(17)  Bbb     0.6670   -48.263   -17.222   -16.099  0.8230 -0.0357 -0.5670
              Bcc     0.9383   -67.896   -24.227   -22.648  0.5336 -0.2939  0.7931
 
              Baa    -0.7040   -28.864   -10.299    -9.628  0.9962  0.0863  0.0066
    11 S(33)  Bbb     0.1403     5.753     2.053     1.919  0.0462 -0.5942  0.8030
              Bcc     0.5637    23.111     8.247     7.709 -0.0732  0.7997  0.5960
 
              Baa    -0.2871  -153.199   -54.665   -51.102  0.7045  0.3145 -0.6362
    12 H(1)   Bbb     0.1326    70.739    25.242    23.596  0.7097 -0.3155  0.6299
              Bcc     0.1545    82.459    29.424    27.505  0.0026  0.8953  0.4454
 
              Baa    -0.2888  -154.081   -54.980   -51.396 -0.1466  0.9721 -0.1832
    13 H(1)   Bbb     0.1359    72.532    25.881    24.194  0.9411  0.1941  0.2768
              Bcc     0.1528    81.549    29.099    27.202 -0.3046  0.1318  0.9433
 
              Baa    -0.2873  -153.293   -54.699   -51.133  0.1069  0.5053  0.8563
    14 H(1)   Bbb     0.1323    70.571    25.181    23.540  0.9191 -0.3788  0.1088
              Bcc     0.1550    82.723    29.517    27.593  0.3793  0.7754 -0.5049
 
              Baa    -0.2811  -149.962   -53.510   -50.022 -0.0744  0.5215  0.8500
    15 H(1)   Bbb     0.1332    71.073    25.361    23.707 -0.3388  0.7885 -0.5134
              Bcc     0.1479    78.889    28.150    26.315  0.9379  0.3262 -0.1180
 
              Baa    -0.2969  -158.402   -56.522   -52.837  0.8665 -0.0784  0.4930
    16 H(1)   Bbb     0.1368    72.996    26.047    24.349  0.1466  0.9840 -0.1012
              Bcc     0.1601    85.406    30.475    28.488 -0.4772  0.1600  0.8641
 
              Baa    -0.2839  -151.457   -54.044   -50.521  0.7109  0.4303 -0.5563
    17 H(1)   Bbb     0.1319    70.374    25.111    23.474 -0.5678  0.8179 -0.0930
              Bcc     0.1520    81.084    28.933    27.047  0.4150  0.3819  0.8258
 
              Baa    -0.2929  -156.266   -55.760   -52.125  0.9915  0.1244  0.0372
    18 H(1)   Bbb     0.1367    72.952    26.031    24.334  0.0429 -0.5843  0.8104
              Bcc     0.1561    83.314    29.728    27.790 -0.1226  0.8020  0.5847
 
              Baa    -0.2953  -157.533   -56.212   -52.547  0.2253  0.9649  0.1350
    19 H(1)   Bbb     0.1389    74.087    26.436    24.713  0.5420 -0.2392  0.8056
              Bcc     0.1564    83.446    29.776    27.835  0.8096 -0.1083 -0.5769
 
              Baa    -0.2945  -157.114   -56.062   -52.408 -0.4225  0.3508  0.8357
    20 H(1)   Bbb     0.1381    73.691    26.295    24.581 -0.5832  0.6006 -0.5469
              Bcc     0.1564    83.423    29.767    27.827  0.6938  0.7185  0.0491
 
              Baa    -0.2750  -146.713   -52.351   -48.938 -0.0144 -0.5463  0.8375
    21 H(1)   Bbb     0.1303    69.511    24.803    23.186  0.8481 -0.4503 -0.2792
              Bcc     0.1447    77.202    27.548    25.752  0.5296  0.7063  0.4698
 
              Baa    -0.2817  -150.327   -53.641   -50.144  0.3717  0.9004  0.2261
    22 H(1)   Bbb     0.1315    70.136    25.026    23.395  0.8613 -0.2436 -0.4459
              Bcc     0.1503    80.192    28.614    26.749  0.3464 -0.3605  0.8661
 
              Baa    -0.3866  -206.266   -73.601   -68.803  0.2785  0.8801  0.3845
    23 H(1)   Bbb     0.1511    80.614    28.765    26.890  0.9339 -0.1548 -0.3223
              Bcc     0.2355   125.652    44.836    41.913  0.2241 -0.4488  0.8651
 

 ---------------------------------------------------------------------------------

 No NMR shielding tensors so no spin-rotation constants.
 Leave Link  601 at Sat Feb 17 21:00:11 2018, MaxMem=   33554432 cpu:       0.7
 Merz-Kollman atomic radii used.
 Read replacement radii for each type of atom:
 Atom Element Radius
    1     6    1.50
    2     6    1.50
    3     6    1.50
    4     6    1.50
    5     6    1.50
    6     7    1.50
    7     7    1.50
    8     8    1.40
    9     8    1.40
   10     8    1.40
   11    16    1.75
   12     1    1.20
   13     1    1.20
   14     1    1.20
   15     1    1.20
   16     1    1.20
   17     1    1.20
   18     1    1.20
   19     1    1.20
   20     1    1.20
   21     1    1.20
   22     1    1.20
   23     1    1.20
 Generate VDW surfaces: Layer= 4 Dens= 1 Start= 1.400 Inc= 0.200

 **********************************************************************

            Electrostatic Properties Using The SCF Density

 **********************************************************************

       Atomic Center    1 is at   1.770637 -0.730349 -0.258065
       Atomic Center    2 is at   3.900701  0.138672  0.550435
       Atomic Center    3 is at   2.233773  1.748101 -0.264829
       Atomic Center    4 is at  -2.764794  0.900677 -1.163122
       Atomic Center    5 is at   0.343623 -0.466279 -0.771998
       Atomic Center    6 is at  -0.495298  0.127392  0.271560
       Atomic Center    7 is at   2.571789  0.359584 -0.006243
       Atomic Center    8 is at   2.151181 -1.879932 -0.086606
       Atomic Center    9 is at  -2.631776  0.624910  1.463670
       Atomic Center   10 is at  -2.445226 -1.456101 -0.029549
       Atomic Center   11 is at  -2.162579 -0.051160  0.254871
       Atomic Center   12 is at   4.673686  0.481566 -0.149968
       Atomic Center   13 is at   4.023632 -0.927620  0.732815
       Atomic Center   14 is at   4.015094  0.691390  1.491666
       Atomic Center   15 is at   2.155450  2.320505  0.671088
       Atomic Center   16 is at   1.293443  1.838066 -0.809211
       Atomic Center   17 is at   3.015273  2.217813 -0.876398
       Atomic Center   18 is at  -3.847883  0.763462 -1.202952
       Atomic Center   19 is at  -2.527196  1.956378 -1.016695
       Atomic Center   20 is at  -2.310758  0.516329 -2.079230
       Atomic Center   21 is at   0.360927  0.127036 -1.700713
       Atomic Center   22 is at  -0.067686 -1.449737 -0.996905
       Atomic Center   23 is at  -0.215229  1.018605  0.666691
      ESP Fit Center   24 is at   1.770637 -0.730349  1.841935
      ESP Fit Center   25 is at   2.820637 -0.730349 -2.076718
      ESP Fit Center   26 is at   2.295637 -1.639676 -2.076718
      ESP Fit Center   27 is at   1.770637 -0.730349 -2.358065
      ESP Fit Center   28 is at   3.375701 -0.770655  2.369088
      ESP Fit Center   29 is at   4.425701 -0.770655  2.369088
      ESP Fit Center   30 is at   5.719354  0.138672  1.600435
      ESP Fit Center   31 is at   4.153828  2.223361  0.550435
      ESP Fit Center   32 is at   5.760158 -0.837247  0.550435
      ESP Fit Center   33 is at   4.425701 -0.770655 -1.268219
      ESP Fit Center   34 is at   2.486900  3.832789 -0.264829
      ESP Fit Center   35 is at   1.489103  3.711635 -0.264829
      ESP Fit Center   36 is at   1.974952  3.548243 -1.314829
      ESP Fit Center   37 is at   2.758773  0.838774 -2.083482
      ESP Fit Center   38 is at   2.233773  1.748101 -2.364829
      ESP Fit Center   39 is at  -3.955759  2.275123 -0.113122
      ESP Fit Center   40 is at  -1.234846  1.883915 -2.213122
      ESP Fit Center   41 is at  -3.955759  2.275123 -2.213122
      ESP Fit Center   42 is at  -3.289794  1.810003 -2.981775
      ESP Fit Center   43 is at  -3.814794  0.900677 -2.981775
      ESP Fit Center   44 is at   0.868623 -1.375606 -2.590651
      ESP Fit Center   45 is at  -0.495298  0.127392  2.371560
      ESP Fit Center   46 is at   0.554702  0.127392  2.090213
      ESP Fit Center   47 is at   0.029702 -0.781935  2.090213
      ESP Fit Center   48 is at   0.260198 -1.526914  1.321560
      ESP Fit Center   49 is at  -0.754119  1.927534 -0.778440
      ESP Fit Center   50 is at   1.521789  0.359584  1.812410
      ESP Fit Center   51 is at   3.621789  0.359584 -1.824896
      ESP Fit Center   52 is at   2.571789  0.359584 -2.106243
      ESP Fit Center   53 is at   2.151181 -1.879932  1.873394
      ESP Fit Center   54 is at   1.171181 -1.879932  1.610804
      ESP Fit Center   55 is at   1.661181 -2.728637  1.610804
      ESP Fit Center   56 is at   2.641181 -2.728637  1.610804
      ESP Fit Center   57 is at   0.777947 -2.877645  0.893394
      ESP Fit Center   58 is at   1.626652 -3.494265  0.893394
      ESP Fit Center   59 is at   2.675709 -3.494265  0.893394
      ESP Fit Center   60 is at   3.524414 -2.877645  0.893394
      ESP Fit Center   61 is at   0.453771 -2.859932 -0.086606
      ESP Fit Center   62 is at   1.171181 -3.577342 -0.086606
      ESP Fit Center   63 is at   2.151181 -3.839932 -0.086606
      ESP Fit Center   64 is at   3.131181 -3.577342 -0.086606
      ESP Fit Center   65 is at   3.848590 -2.859932 -0.086606
      ESP Fit Center   66 is at   3.848590 -1.879932 -1.066606
      ESP Fit Center   67 is at   1.626652 -3.494265 -1.066606
      ESP Fit Center   68 is at   2.675709 -3.494265 -1.066606
      ESP Fit Center   69 is at   3.524414 -2.877645 -1.066606
      ESP Fit Center   70 is at   3.131181 -1.879932 -1.784015
      ESP Fit Center   71 is at   1.661181 -2.728637 -1.784015
      ESP Fit Center   72 is at   2.641181 -2.728637 -1.784015
      ESP Fit Center   73 is at   2.151181 -1.879932 -2.046606
      ESP Fit Center   74 is at  -2.631776  0.624910  3.423670
      ESP Fit Center   75 is at  -1.651776  0.624910  3.161080
      ESP Fit Center   76 is at  -2.141776  1.473615  3.161080
      ESP Fit Center   77 is at  -3.121776  1.473615  3.161080
      ESP Fit Center   78 is at  -3.611776  0.624910  3.161080
      ESP Fit Center   79 is at  -3.121776 -0.223795  3.161080
      ESP Fit Center   80 is at  -2.141776 -0.223795  3.161080
      ESP Fit Center   81 is at  -0.934366  0.624910  2.443670
      ESP Fit Center   82 is at  -1.258542  1.622622  2.443670
      ESP Fit Center   83 is at  -2.107247  2.239243  2.443670
      ESP Fit Center   84 is at  -3.156304  2.239243  2.443670
      ESP Fit Center   85 is at  -4.005009  1.622622  2.443670
      ESP Fit Center   86 is at  -4.329185  0.624910  2.443670
      ESP Fit Center   87 is at  -4.005009 -0.372803  2.443670
      ESP Fit Center   88 is at  -3.156304 -0.989423  2.443670
      ESP Fit Center   89 is at  -1.651776  2.322320  1.463670
      ESP Fit Center   90 is at  -2.631776  2.584910  1.463670
      ESP Fit Center   91 is at  -3.611776  2.322320  1.463670
      ESP Fit Center   92 is at  -4.329185  1.604910  1.463670
      ESP Fit Center   93 is at  -4.591776  0.624910  1.463670
      ESP Fit Center   94 is at  -4.329185 -0.355090  1.463670
      ESP Fit Center   95 is at  -4.005009  1.622622  0.483670
      ESP Fit Center   96 is at  -2.935226 -2.304805  1.667861
      ESP Fit Center   97 is at  -1.955226 -2.304805  1.667861
      ESP Fit Center   98 is at  -4.142636 -1.456101  0.950451
      ESP Fit Center   99 is at  -3.818460 -2.453813  0.950451
      ESP Fit Center  100 is at  -2.969755 -3.070433  0.950451
      ESP Fit Center  101 is at  -1.920698 -3.070433  0.950451
      ESP Fit Center  102 is at  -1.071993 -2.453813  0.950451
      ESP Fit Center  103 is at  -4.405226 -1.456101 -0.029549
      ESP Fit Center  104 is at  -4.142636 -2.436101 -0.029549
      ESP Fit Center  105 is at  -3.425226 -3.153510 -0.029549
      ESP Fit Center  106 is at  -2.445226 -3.416101 -0.029549
      ESP Fit Center  107 is at  -1.465226 -3.153510 -0.029549
      ESP Fit Center  108 is at  -4.142636 -1.456101 -1.009549
      ESP Fit Center  109 is at  -3.818460 -2.453813 -1.009549
      ESP Fit Center  110 is at  -2.969755 -3.070433 -1.009549
      ESP Fit Center  111 is at  -1.920698 -3.070433 -1.009549
      ESP Fit Center  112 is at  -3.425226 -1.456101 -1.726958
      ESP Fit Center  113 is at  -2.935226 -2.304805 -1.726958
      ESP Fit Center  114 is at  -1.955226 -2.304805 -1.726958
      ESP Fit Center  115 is at  -2.445226 -1.456101 -1.989549
      ESP Fit Center  116 is at  -1.631071 -0.971759  2.462245
      ESP Fit Center  117 is at  -3.416956 -1.498789  1.782421
      ESP Fit Center  118 is at  -1.366857 -1.793549  1.782421
      ESP Fit Center  119 is at  -1.631071  2.277526  0.800047
      ESP Fit Center  120 is at  -4.551152 -0.051160  0.800047
      ESP Fit Center  121 is at  -4.314609 -1.087524  0.800047
      ESP Fit Center  122 is at  -0.673328 -1.918622  0.800047
      ESP Fit Center  123 is at   6.271461  0.481566  0.369180
      ESP Fit Center  124 is at   5.897653  1.508596  0.369180
      ESP Fit Center  125 is at   4.951137  2.055068  0.369180
      ESP Fit Center  126 is at   5.897653 -0.545464  0.369180
      ESP Fit Center  127 is at   6.271461  0.481566 -0.669117
      ESP Fit Center  128 is at   5.897653  1.508596 -0.669117
      ESP Fit Center  129 is at   4.951137  2.055068 -0.669117
      ESP Fit Center  130 is at   5.897653 -0.545464 -0.669117
      ESP Fit Center  131 is at   5.661165  0.481566 -1.509117
      ESP Fit Center  132 is at   4.978834  1.420715 -1.509117
      ESP Fit Center  133 is at   4.978834 -0.457582 -1.509117
      ESP Fit Center  134 is at   4.673686  0.481566 -1.829968
      ESP Fit Center  135 is at   4.023632 -0.927620  2.412815
      ESP Fit Center  136 is at   5.011111 -0.927620  2.091963
      ESP Fit Center  137 is at   3.224744 -1.508045  2.091963
      ESP Fit Center  138 is at   4.328780 -1.866768  2.091963
      ESP Fit Center  139 is at   5.621407 -0.927620  1.251963
      ESP Fit Center  140 is at   4.301082 -2.501121  1.251963
      ESP Fit Center  141 is at   5.247598 -1.954650  1.251963
      ESP Fit Center  142 is at   4.301082 -2.501121  0.213666
      ESP Fit Center  143 is at   5.247598 -1.954650  0.213666
      ESP Fit Center  144 is at   4.328780 -1.866768 -0.626334
      ESP Fit Center  145 is at   4.015094  0.691390  3.171666
      ESP Fit Center  146 is at   5.002573  0.691390  2.850815
      ESP Fit Center  147 is at   4.320242  1.630538  2.850815
      ESP Fit Center  148 is at   3.216207  1.271816  2.850815
      ESP Fit Center  149 is at   3.216207  0.110964  2.850815
      ESP Fit Center  150 is at   4.320242 -0.247759  2.850815
      ESP Fit Center  151 is at   5.612869  0.691390  2.010815
      ESP Fit Center  152 is at   5.239061  1.718420  2.010815
      ESP Fit Center  153 is at   4.292545  2.264891  2.010815
      ESP Fit Center  154 is at   3.216207  2.075103  2.010815
      ESP Fit Center  155 is at   2.513677  1.237861  2.010815
      ESP Fit Center  156 is at   5.239061  1.718420  0.972518
      ESP Fit Center  157 is at   4.292545  2.264891  0.972518
      ESP Fit Center  158 is at   2.155450  2.320505  2.351088
      ESP Fit Center  159 is at   3.142929  2.320505  2.030237
      ESP Fit Center  160 is at   2.460598  3.259653  2.030237
      ESP Fit Center  161 is at   1.356562  2.900931  2.030237
      ESP Fit Center  162 is at   1.356562  1.740079  2.030237
      ESP Fit Center  163 is at   2.460598  1.381356  2.030237
      ESP Fit Center  164 is at   3.379416  3.347535  1.190237
      ESP Fit Center  165 is at   2.432901  3.894006  1.190237
      ESP Fit Center  166 is at   1.356562  3.704219  1.190237
      ESP Fit Center  167 is at   0.654032  2.866976  1.190237
      ESP Fit Center  168 is at   2.432901  3.894006  0.151940
      ESP Fit Center  169 is at   1.356562  3.704219  0.151940
      ESP Fit Center  170 is at   0.494556  3.221780 -0.290062
      ESP Fit Center  171 is at   0.494556  3.221780 -1.328359
      ESP Fit Center  172 is at  -0.207974  2.384538 -1.328359
      ESP Fit Center  173 is at   1.598591  2.777215 -2.168359
      ESP Fit Center  174 is at   0.494556  2.418492 -2.168359
      ESP Fit Center  175 is at   1.293443  1.838066 -2.489211
      ESP Fit Center  176 is at   4.613048  2.217813 -0.357249
      ESP Fit Center  177 is at   4.239240  3.244843 -0.357249
      ESP Fit Center  178 is at   3.292724  3.791314 -0.357249
      ESP Fit Center  179 is at   4.613048  2.217813 -1.395546
      ESP Fit Center  180 is at   4.239240  3.244843 -1.395546
      ESP Fit Center  181 is at   3.292724  3.791314 -1.395546
      ESP Fit Center  182 is at   2.216386  3.601527 -1.395546
      ESP Fit Center  183 is at   4.002752  2.217813 -2.235546
      ESP Fit Center  184 is at   3.320421  3.156962 -2.235546
      ESP Fit Center  185 is at   2.216386  2.798239 -2.235546
      ESP Fit Center  186 is at   3.320421  1.278665 -2.235546
      ESP Fit Center  187 is at   3.015273  2.217813 -2.556398
      ESP Fit Center  188 is at  -4.646771  1.343888  0.156197
      ESP Fit Center  189 is at  -4.646771  0.183037  0.156197
      ESP Fit Center  190 is at  -4.646771  2.147176 -0.683803
      ESP Fit Center  191 is at  -5.349300  1.309933 -0.683803
      ESP Fit Center  192 is at  -5.349300  0.216991 -0.683803
      ESP Fit Center  193 is at  -4.646771 -0.620251 -0.683803
      ESP Fit Center  194 is at  -4.646771  2.147176 -1.722100
      ESP Fit Center  195 is at  -5.349300  1.309933 -1.722100
      ESP Fit Center  196 is at  -5.349300  0.216991 -1.722100
      ESP Fit Center  197 is at  -4.646771 -0.620251 -1.722100
      ESP Fit Center  198 is at  -4.646771  1.343888 -2.562100
      ESP Fit Center  199 is at  -4.646771  0.183037 -2.562100
      ESP Fit Center  200 is at  -2.222049  2.895527  0.342453
      ESP Fit Center  201 is at  -3.326084  2.536804  0.342453
      ESP Fit Center  202 is at  -1.303230  2.983408 -0.497547
      ESP Fit Center  203 is at  -2.249746  3.529879 -0.497547
      ESP Fit Center  204 is at  -3.326084  3.340092 -0.497547
      ESP Fit Center  205 is at  -4.028614  2.502849 -0.497547
      ESP Fit Center  206 is at  -0.929421  1.956378 -1.535844
      ESP Fit Center  207 is at  -1.303230  2.983408 -1.535844
      ESP Fit Center  208 is at  -2.249746  3.529879 -1.535844
      ESP Fit Center  209 is at  -3.326084  3.340092 -1.535844
      ESP Fit Center  210 is at  -2.222049  2.895527 -2.375844
      ESP Fit Center  211 is at  -3.326084  2.536804 -2.375844
      ESP Fit Center  212 is at  -1.086791  1.543359 -2.598378
      ESP Fit Center  213 is at  -3.109645 -0.867385 -2.598378
      ESP Fit Center  214 is at  -2.033307 -1.057173 -2.598378
      ESP Fit Center  215 is at  -1.086791 -0.510701 -2.598378
      ESP Fit Center  216 is at  -1.323279  0.516329 -3.438378
      ESP Fit Center  217 is at  -2.005610  1.455477 -3.438378
      ESP Fit Center  218 is at  -3.109645  1.096754 -3.438378
      ESP Fit Center  219 is at  -3.109645 -0.064097 -3.438378
      ESP Fit Center  220 is at  -2.005610 -0.422820 -3.438378
      ESP Fit Center  221 is at  -2.310758  0.516329 -3.759230
      ESP Fit Center  222 is at   1.958702  0.127036 -2.219862
      ESP Fit Center  223 is at  -0.437961  1.510750 -2.219862
      ESP Fit Center  224 is at   1.348406  0.127036 -3.059862
      ESP Fit Center  225 is at   0.666075  1.066185 -3.059862
      ESP Fit Center  226 is at  -0.437961  0.707462 -3.059862
      ESP Fit Center  227 is at  -0.437961 -0.453389 -3.059862
      ESP Fit Center  228 is at   0.666075 -0.812112 -3.059862
      ESP Fit Center  229 is at   0.360927  0.127036 -3.380713
      ESP Fit Center  230 is at   0.237461 -2.388885  0.362244
      ESP Fit Center  231 is at  -0.866574 -2.833450 -0.477756
      ESP Fit Center  232 is at   0.209764 -3.023238 -0.477756
      ESP Fit Center  233 is at  -0.866574 -2.833450 -1.516053
      ESP Fit Center  234 is at   0.209764 -3.023238 -1.516053
      ESP Fit Center  235 is at  -0.866574 -2.030162 -2.356053
      ESP Fit Center  236 is at   0.237461 -2.388885 -2.356053
      ESP Fit Center  237 is at  -0.067686 -1.449737 -2.676905
      ESP Fit Center  238 is at  -0.215229  1.018605  2.346691
      ESP Fit Center  239 is at   0.772250  1.018605  2.025839
      ESP Fit Center  240 is at   0.089919  1.957753  2.025839
      ESP Fit Center  241 is at  -1.014116  1.599030  2.025839
      ESP Fit Center  242 is at   0.062222  2.592106  1.185839
      ESP Fit Center  243 is at  -1.014116  2.402318  1.185839
      ESP Fit Center  244 is at   0.062222  2.592106  0.147542
      ESP Fit Center  245 is at  -1.014116  2.402318  0.147542
      ESP Fit Center  246 is at   1.770637 -0.730349  2.141935
      ESP Fit Center  247 is at   2.811958 -0.730349 -2.420390
      ESP Fit Center  248 is at   2.291297  0.171461 -2.420390
      ESP Fit Center  249 is at   2.291297 -1.632160 -2.420390
      ESP Fit Center  250 is at   3.380040 -0.763138  2.712760
      ESP Fit Center  251 is at   4.421361 -0.763138  2.712760
      ESP Fit Center  252 is at   5.777096  0.138672  2.046810
      ESP Fit Center  253 is at   5.479225 -0.875784  2.046810
      ESP Fit Center  254 is at   6.240528  0.138672  1.084485
      ESP Fit Center  255 is at   6.008812  1.153885  1.084485
      ESP Fit Center  256 is at   6.008812 -0.876541  1.084485
      ESP Fit Center  257 is at   4.421361 -0.763138 -1.611891
      ESP Fit Center  258 is at   1.713113  4.029263 -0.798879
      ESP Fit Center  259 is at   1.966734  3.605397 -1.761205
      ESP Fit Center  260 is at   2.754434  0.846290 -2.427154
      ESP Fit Center  261 is at   2.233773  1.748101 -2.664829
      ESP Fit Center  262 is at  -3.993572  2.318762  0.333254
      ESP Fit Center  263 is at  -0.656683  1.915889 -1.697172
      ESP Fit Center  264 is at  -4.223652  2.730027 -1.697172
      ESP Fit Center  265 is at  -3.993572  2.318762 -2.659497
      ESP Fit Center  266 is at  -3.993572 -0.517409 -2.659497
      ESP Fit Center  267 is at  -3.285455  1.802487 -3.325447
      ESP Fit Center  268 is at  -3.806115  0.900677 -3.325447
      ESP Fit Center  269 is at   0.076584 -2.323575  0.724378
      ESP Fit Center  270 is at  -0.177038 -1.368089 -2.934323
      ESP Fit Center  271 is at   0.864283 -1.368089 -2.934323
      ESP Fit Center  272 is at  -0.495298  0.127392  2.671560
      ESP Fit Center  273 is at   0.546023  0.127392  2.433885
      ESP Fit Center  274 is at   0.025362 -0.774419  2.433885
      ESP Fit Center  275 is at   0.284185 -1.579438  1.767935
      ESP Fit Center  276 is at   1.530469  0.359584  2.156082
      ESP Fit Center  277 is at   2.051129 -0.542227  2.156082
      ESP Fit Center  278 is at   3.613110  0.359584 -2.168568
      ESP Fit Center  279 is at   2.571789  0.359584 -2.406243
      ESP Fit Center  280 is at   2.151181 -1.879932  2.153394
      ESP Fit Center  281 is at   1.179281 -1.879932  1.931565
      ESP Fit Center  282 is at   1.665231 -2.721622  1.931565
      ESP Fit Center  283 is at   2.637130 -2.721622  1.931565
      ESP Fit Center  284 is at   0.734347 -2.909322  1.310012
      ESP Fit Center  285 is at   1.609998 -3.545520  1.310012
      ESP Fit Center  286 is at   2.692363 -3.545520  1.310012
      ESP Fit Center  287 is at   3.568014 -2.909322  1.310012
      ESP Fit Center  288 is at   0.516554 -3.328085  0.411841
      ESP Fit Center  289 is at   1.376781 -3.921857  0.411841
      ESP Fit Center  290 is at   2.414413 -4.047848  0.411841
      ESP Fit Center  291 is at   3.391742 -3.677196  0.411841
      ESP Fit Center  292 is at   4.084874 -2.894813  0.411841
      ESP Fit Center  293 is at   0.516554 -3.328085 -0.585052
      ESP Fit Center  294 is at   1.376781 -3.921857 -0.585052
      ESP Fit Center  295 is at   2.414413 -4.047848 -0.585052
      ESP Fit Center  296 is at   3.391742 -3.677196 -0.585052
      ESP Fit Center  297 is at   4.084874 -2.894813 -0.585052
      ESP Fit Center  298 is at   3.902483 -1.879932 -1.483223
      ESP Fit Center  299 is at   1.609998 -3.545520 -1.483223
      ESP Fit Center  300 is at   2.692363 -3.545520 -1.483223
      ESP Fit Center  301 is at   3.568014 -2.909322 -1.483223
      ESP Fit Center  302 is at   3.123080 -1.879932 -2.104776
      ESP Fit Center  303 is at   1.665231 -2.721622 -2.104776
      ESP Fit Center  304 is at   2.637130 -2.721622 -2.104776
      ESP Fit Center  305 is at  -2.631776  0.624910  3.703670
      ESP Fit Center  306 is at  -1.659876  0.624910  3.481841
      ESP Fit Center  307 is at  -2.145826  1.466600  3.481841
      ESP Fit Center  308 is at  -3.117725  1.466600  3.481841
      ESP Fit Center  309 is at  -3.603675  0.624910  3.481841
      ESP Fit Center  310 is at  -3.117725 -0.216780  3.481841
      ESP Fit Center  311 is at  -2.145826 -0.216780  3.481841
      ESP Fit Center  312 is at  -0.880473  0.624910  2.860287
      ESP Fit Center  313 is at  -1.214942  1.654300  2.860287
      ESP Fit Center  314 is at  -2.090593  2.290498  2.860287
      ESP Fit Center  315 is at  -3.172958  2.290498  2.860287
      ESP Fit Center  316 is at  -4.048609  1.654300  2.860287
      ESP Fit Center  317 is at  -4.383078  0.624910  2.860287
      ESP Fit Center  318 is at  -4.048609 -0.404480  2.860287
      ESP Fit Center  319 is at  -3.172958 -1.040678  2.860287
      ESP Fit Center  320 is at  -1.391214  2.422174  1.962117
      ESP Fit Center  321 is at  -2.368543  2.792826  1.962117
      ESP Fit Center  322 is at  -3.406175  2.666834  1.962117
      ESP Fit Center  323 is at  -4.266402  2.073063  1.962117
      ESP Fit Center  324 is at  -4.752156  1.147537  1.962117
      ESP Fit Center  325 is at  -4.752156  0.102283  1.962117
      ESP Fit Center  326 is at  -4.266402 -0.823243  1.962117
      ESP Fit Center  327 is at  -2.368543  2.792826  0.965223
      ESP Fit Center  328 is at  -3.406175  2.666834  0.965223
      ESP Fit Center  329 is at  -4.266402  2.073063  0.965223
      ESP Fit Center  330 is at  -4.752156  1.147537  0.965223
      ESP Fit Center  331 is at  -2.931176 -2.297790  1.988622
      ESP Fit Center  332 is at  -1.959277 -2.297790  1.988622
      ESP Fit Center  333 is at  -3.862060 -2.485490  1.367069
      ESP Fit Center  334 is at  -2.986409 -3.121688  1.367069
      ESP Fit Center  335 is at  -1.904044 -3.121688  1.367069
      ESP Fit Center  336 is at  -1.028393 -2.485490  1.367069
      ESP Fit Center  337 is at  -4.565607 -1.978727  0.468898
      ESP Fit Center  338 is at  -4.079853 -2.904253  0.468898
      ESP Fit Center  339 is at  -3.219626 -3.498025  0.468898
      ESP Fit Center  340 is at  -2.181994 -3.624016  0.468898
      ESP Fit Center  341 is at  -1.204665 -3.253364  0.468898
      ESP Fit Center  342 is at  -4.565607 -1.978727 -0.527996
      ESP Fit Center  343 is at  -4.079853 -2.904253 -0.527996
      ESP Fit Center  344 is at  -3.219626 -3.498025 -0.527996
      ESP Fit Center  345 is at  -2.181994 -3.624016 -0.527996
      ESP Fit Center  346 is at  -1.204665 -3.253364 -0.527996
      ESP Fit Center  347 is at  -4.196529 -1.456101 -1.426166
      ESP Fit Center  348 is at  -3.862060 -2.485490 -1.426166
      ESP Fit Center  349 is at  -2.986409 -3.121688 -1.426166
      ESP Fit Center  350 is at  -1.904044 -3.121688 -1.426166
      ESP Fit Center  351 is at  -3.417126 -1.456101 -2.047719
      ESP Fit Center  352 is at  -2.931176 -2.297790 -2.047719
      ESP Fit Center  353 is at  -1.959277 -2.297790 -2.047719
      ESP Fit Center  354 is at  -2.445226 -1.456101 -2.269549
      ESP Fit Center  355 is at  -1.626822 -0.979118  2.841734
      ESP Fit Center  356 is at  -3.152528 -1.765803  2.234770
      ESP Fit Center  357 is at  -2.162579 -2.031059  2.234770
      ESP Fit Center  358 is at  -1.172629 -1.765803  2.234770
      ESP Fit Center  359 is at  -4.692912 -0.588999  1.326385
      ESP Fit Center  360 is at  -4.255395 -1.571680  1.326385
      ESP Fit Center  361 is at  -4.914903 -0.565659  0.254871
      ESP Fit Center  362 is at   6.336455  0.481566  0.810032
      ESP Fit Center  363 is at   6.018894  1.458917  0.810032
      ESP Fit Center  364 is at   6.593686  0.481566 -0.149968
      ESP Fit Center  365 is at   6.336455  1.441566 -0.149968
      ESP Fit Center  366 is at   5.633686  2.144335 -0.149968
      ESP Fit Center  367 is at   6.336455 -0.478434 -0.149968
      ESP Fit Center  368 is at   6.336455  0.481566 -1.109968
      ESP Fit Center  369 is at   6.018894  1.458917 -1.109968
      ESP Fit Center  370 is at   5.187510  2.062953 -1.109968
      ESP Fit Center  371 is at   5.187510 -1.099821 -1.109968
      ESP Fit Center  372 is at   6.018894 -0.495785 -1.109968
      ESP Fit Center  373 is at   5.633686  0.481566 -1.812737
      ESP Fit Center  374 is at   5.153686  1.312951 -1.812737
      ESP Fit Center  375 is at   4.193686 -0.349818 -1.812737
      ESP Fit Center  376 is at   5.153686 -0.349818 -1.812737
      ESP Fit Center  377 is at   4.673686  0.481566 -2.069968
      ESP Fit Center  378 is at   3.543632 -1.759004  2.395584
      ESP Fit Center  379 is at   4.503632 -1.759004  2.395584
      ESP Fit Center  380 is at   3.509808 -2.509007  1.692815
      ESP Fit Center  381 is at   4.537455 -2.509007  1.692815
      ESP Fit Center  382 is at   5.368840 -1.904971  1.692815
      ESP Fit Center  383 is at   4.023632 -2.847620  0.732815
      ESP Fit Center  384 is at   4.983632 -2.590389  0.732815
      ESP Fit Center  385 is at   5.686400 -1.887620  0.732815
      ESP Fit Center  386 is at   4.537455 -2.509007 -0.227185
      ESP Fit Center  387 is at   5.368840 -1.904971 -0.227185
      ESP Fit Center  388 is at   4.503632 -1.759004 -0.929954
      ESP Fit Center  389 is at   4.015094  0.691390  3.411666
      ESP Fit Center  390 is at   4.975094  0.691390  3.154435
      ESP Fit Center  391 is at   4.495094  1.522774  3.154435
      ESP Fit Center  392 is at   3.535094  1.522774  3.154435
      ESP Fit Center  393 is at   3.055094  0.691390  3.154435
      ESP Fit Center  394 is at   3.535094 -0.139995  3.154435
      ESP Fit Center  395 is at   4.495094 -0.139995  3.154435
      ESP Fit Center  396 is at   5.677863  0.691390  2.451666
      ESP Fit Center  397 is at   5.360302  1.668741  2.451666
      ESP Fit Center  398 is at   4.528918  2.272777  2.451666
      ESP Fit Center  399 is at   3.501270  2.272777  2.451666
      ESP Fit Center  400 is at   2.669886  1.668741  2.451666
      ESP Fit Center  401 is at   2.352325  0.691390  2.451666
      ESP Fit Center  402 is at   5.360302 -0.285961  2.451666
      ESP Fit Center  403 is at   5.677863  1.651390  1.491666
      ESP Fit Center  404 is at   4.975094  2.354159  1.491666
      ESP Fit Center  405 is at   4.015094  2.611390  1.491666
      ESP Fit Center  406 is at   2.155450  2.320505  2.591088
      ESP Fit Center  407 is at   3.115450  2.320505  2.333857
      ESP Fit Center  408 is at   2.635450  3.151889  2.333857
      ESP Fit Center  409 is at   1.675450  3.151889  2.333857
      ESP Fit Center  410 is at   1.195450  2.320505  2.333857
      ESP Fit Center  411 is at   1.675450  1.489120  2.333857
      ESP Fit Center  412 is at   3.500658  3.297856  1.631088
      ESP Fit Center  413 is at   2.669274  3.901892  1.631088
      ESP Fit Center  414 is at   1.641626  3.901892  1.631088
      ESP Fit Center  415 is at   0.810242  3.297856  1.631088
      ESP Fit Center  416 is at   3.115450  3.983274  0.671088
      ESP Fit Center  417 is at   2.155450  4.240505  0.671088
      ESP Fit Center  418 is at   1.195450  3.983274  0.671088
      ESP Fit Center  419 is at   0.492681  3.280505  0.671088
      ESP Fit Center  420 is at   0.333443  3.500835 -0.809211
      ESP Fit Center  421 is at  -0.369325  2.798066 -0.809211
      ESP Fit Center  422 is at   0.779620  3.419454 -1.769211
      ESP Fit Center  423 is at  -0.051765  2.815417 -1.769211
      ESP Fit Center  424 is at   1.773443  2.669451 -2.471979
      ESP Fit Center  425 is at   0.813443  2.669451 -2.471979
      ESP Fit Center  426 is at   1.293443  1.838066 -2.729211
      ESP Fit Center  427 is at   4.360481  3.195164  0.083602
      ESP Fit Center  428 is at   3.529097  3.799200  0.083602
      ESP Fit Center  429 is at   4.678042  3.177813 -0.876398
      ESP Fit Center  430 is at   3.975273  3.880582 -0.876398
      ESP Fit Center  431 is at   3.015273  4.137813 -0.876398
      ESP Fit Center  432 is at   4.678042  2.217813 -1.836398
      ESP Fit Center  433 is at   4.360481  3.195164 -1.836398
      ESP Fit Center  434 is at   3.529097  3.799200 -1.836398
      ESP Fit Center  435 is at   2.501449  3.799200 -1.836398
      ESP Fit Center  436 is at   3.975273  2.217813 -2.539167
      ESP Fit Center  437 is at   3.495273  3.049198 -2.539167
      ESP Fit Center  438 is at   2.535273  3.049198 -2.539167
      ESP Fit Center  439 is at   3.495273  1.386429 -2.539167
      ESP Fit Center  440 is at   3.015273  2.217813 -2.796398
      ESP Fit Center  441 is at  -5.193091  1.740813 -0.242952
      ESP Fit Center  442 is at  -5.510652  0.763462 -0.242952
      ESP Fit Center  443 is at  -5.193091 -0.213889 -0.242952
      ESP Fit Center  444 is at  -4.807883  2.426231 -1.202952
      ESP Fit Center  445 is at  -5.510652  1.723462 -1.202952
      ESP Fit Center  446 is at  -5.767883  0.763462 -1.202952
      ESP Fit Center  447 is at  -5.510652 -0.196538 -1.202952
      ESP Fit Center  448 is at  -4.807883 -0.899307 -1.202952
      ESP Fit Center  449 is at  -5.193091  1.740813 -2.162952
      ESP Fit Center  450 is at  -5.510652  0.763462 -2.162952
      ESP Fit Center  451 is at  -5.193091 -0.213889 -2.162952
      ESP Fit Center  452 is at  -4.361707 -0.817925 -2.162952
      ESP Fit Center  453 is at  -4.327883  1.594847 -2.865720
      ESP Fit Center  454 is at  -4.807883  0.763462 -2.865720
      ESP Fit Center  455 is at  -4.327883 -0.067922 -2.865720
      ESP Fit Center  456 is at  -2.047196  2.787763  0.646073
      ESP Fit Center  457 is at  -3.007196  2.787763  0.646073
      ESP Fit Center  458 is at  -1.181988  2.933729 -0.056695
      ESP Fit Center  459 is at  -2.013373  3.537765 -0.056695
      ESP Fit Center  460 is at  -3.041020  3.537765 -0.056695
      ESP Fit Center  461 is at  -3.872405  2.933729 -0.056695
      ESP Fit Center  462 is at  -0.864428  2.916378 -1.016695
      ESP Fit Center  463 is at  -1.567196  3.619147 -1.016695
      ESP Fit Center  464 is at  -2.527196  3.876378 -1.016695
      ESP Fit Center  465 is at  -3.487196  3.619147 -1.016695
      ESP Fit Center  466 is at  -4.189965  2.916378 -1.016695
      ESP Fit Center  467 is at  -1.181988  2.933729 -1.976695
      ESP Fit Center  468 is at  -2.013373  3.537765 -1.976695
      ESP Fit Center  469 is at  -3.041020  3.537765 -1.976695
      ESP Fit Center  470 is at  -3.872405  2.933729 -1.976695
      ESP Fit Center  471 is at  -2.047196  2.787763 -2.679464
      ESP Fit Center  472 is at  -3.007196  2.787763 -2.679464
      ESP Fit Center  473 is at  -0.965550  1.493680 -3.039230
      ESP Fit Center  474 is at  -1.796934  2.097716 -3.039230
      ESP Fit Center  475 is at  -3.655966 -0.461022 -3.039230
      ESP Fit Center  476 is at  -2.824582 -1.065058 -3.039230
      ESP Fit Center  477 is at  -1.796934 -1.065058 -3.039230
      ESP Fit Center  478 is at  -0.965550 -0.461022 -3.039230
      ESP Fit Center  479 is at  -1.350758  0.516329 -3.741998
      ESP Fit Center  480 is at  -1.830758  1.347713 -3.741998
      ESP Fit Center  481 is at  -2.790758  1.347713 -3.741998
      ESP Fit Center  482 is at  -3.270758  0.516329 -3.741998
      ESP Fit Center  483 is at  -2.790758 -0.315056 -3.741998
      ESP Fit Center  484 is at  -1.830758 -0.315056 -3.741998
      ESP Fit Center  485 is at  -2.310758  0.516329 -3.999230
      ESP Fit Center  486 is at  -0.599073  1.789805 -1.700713
      ESP Fit Center  487 is at   2.023695  0.127036 -2.660713
      ESP Fit Center  488 is at   1.706135  1.104387 -2.660713
      ESP Fit Center  489 is at  -0.152897  1.708423 -2.660713
      ESP Fit Center  490 is at   1.320927  0.127036 -3.363482
      ESP Fit Center  491 is at   0.840927  0.958421 -3.363482
      ESP Fit Center  492 is at  -0.119073  0.958421 -3.363482
      ESP Fit Center  493 is at  -0.599073  0.127036 -3.363482
      ESP Fit Center  494 is at  -0.119073 -0.704348 -3.363482
      ESP Fit Center  495 is at   0.840927 -0.704348 -3.363482
      ESP Fit Center  496 is at   0.360927  0.127036 -3.620713
      ESP Fit Center  497 is at  -0.581510 -3.031124 -0.036905
      ESP Fit Center  498 is at  -1.027686 -3.112506 -0.996905
      ESP Fit Center  499 is at  -0.067686 -3.369737 -0.996905
      ESP Fit Center  500 is at  -1.412895 -2.427088 -1.956905
      ESP Fit Center  501 is at  -0.581510 -3.031124 -1.956905
      ESP Fit Center  502 is at   0.446137 -3.031124 -1.956905
      ESP Fit Center  503 is at  -1.027686 -1.449737 -2.659674
      ESP Fit Center  504 is at  -0.547686 -2.281121 -2.659674
      ESP Fit Center  505 is at   0.412314 -2.281121 -2.659674
      ESP Fit Center  506 is at  -0.215229  1.018605  2.586691
      ESP Fit Center  507 is at   0.744771  1.018605  2.329459
      ESP Fit Center  508 is at   0.264771  1.849989  2.329459
      ESP Fit Center  509 is at  -0.695229  1.849989  2.329459
      ESP Fit Center  510 is at   0.298595  2.599992  1.626691
      ESP Fit Center  511 is at  -0.729053  2.599992  1.626691
      ESP Fit Center  512 is at  -0.215229  2.938605  0.666691
      ESP Fit Center  513 is at  -1.175229  2.681373  0.666691
      ESP Fit Center  514 is at  -0.729053  2.599992 -0.293309
      ESP Fit Center  515 is at   1.770637 -0.730349  2.441935
      ESP Fit Center  516 is at   2.803882 -0.730349 -2.752540
      ESP Fit Center  517 is at   2.287260  0.164467 -2.752540
      ESP Fit Center  518 is at   2.287260 -1.625166 -2.752540
      ESP Fit Center  519 is at   3.384078 -0.756145  3.044909
      ESP Fit Center  520 is at   4.417323 -0.756145  3.044909
      ESP Fit Center  521 is at   2.650448 -1.304196  2.459623
      ESP Fit Center  522 is at   5.506812 -0.893513  2.459623
      ESP Fit Center  523 is at   6.395175  0.138672  1.583680
      ESP Fit Center  524 is at   6.148145  1.220984  1.583680
      ESP Fit Center  525 is at   6.148145 -0.943640  1.583680
      ESP Fit Center  526 is at   4.933946  2.633147  0.550435
      ESP Fit Center  527 is at   6.395175 -0.894573  0.550435
      ESP Fit Center  528 is at   4.693806 -1.597987 -1.358754
      ESP Fit Center  529 is at   4.417323 -0.756145 -1.944040
      ESP Fit Center  530 is at   4.481218  2.830413  0.768416
      ESP Fit Center  531 is at   2.233773  4.448101 -0.264829
      ESP Fit Center  532 is at   1.200528  4.242575 -0.264829
      ESP Fit Center  533 is at   1.678701  4.180034 -1.298074
      ESP Fit Center  534 is at   1.962068  3.637856 -2.174017
      ESP Fit Center  535 is at   2.750396  0.853284 -2.759304
      ESP Fit Center  536 is at   2.233773  1.748101 -2.964829
      ESP Fit Center  537 is at  -4.320074  2.850935 -0.129876
      ESP Fit Center  538 is at  -4.673983  2.809865 -1.163122
      ESP Fit Center  539 is at  -4.320074  2.850935 -2.196367
      ESP Fit Center  540 is at  -1.971689  2.637335 -3.072310
      ESP Fit Center  541 is at  -3.036500  2.790432 -3.072310
      ESP Fit Center  542 is at  -4.015047  2.343545 -3.072310
      ESP Fit Center  543 is at  -4.015047 -0.542192 -3.072310
      ESP Fit Center  544 is at  -3.281417  1.795493 -3.657596
      ESP Fit Center  545 is at  -3.798039  0.900677 -3.657596
      ESP Fit Center  546 is at   1.136728 -2.202938 -2.681186
      ESP Fit Center  547 is at  -0.173000 -1.361096 -3.266472
      ESP Fit Center  548 is at   0.860245 -1.361096 -3.266472
      ESP Fit Center  549 is at  -0.495298  0.127392  2.971560
      ESP Fit Center  550 is at   0.537947  0.127392  2.766035
      ESP Fit Center  551 is at   0.021324 -0.767425  2.766035
      ESP Fit Center  552 is at   0.297807 -1.609267  2.180748
      ESP Fit Center  553 is at   0.059775 -2.304541  1.304805
      ESP Fit Center  554 is at   1.538544  0.359584  2.488232
      ESP Fit Center  555 is at   2.055167 -0.535233  2.488232
      ESP Fit Center  556 is at   3.605035  0.359584 -2.500718
      ESP Fit Center  557 is at   2.571789  0.359584 -2.706243
      ESP Fit Center  558 is at   2.151181 -1.879932  2.433394
      ESP Fit Center  559 is at   1.057794 -1.879932  2.183836
      ESP Fit Center  560 is at   1.604487 -2.826833  2.183836
      ESP Fit Center  561 is at   2.697874 -2.826833  2.183836
      ESP Fit Center  562 is at   0.260773 -2.435006  1.484589
      ESP Fit Center  563 is at   0.860964 -3.368922  1.484589
      ESP Fit Center  564 is at   1.870790 -3.830094  1.484589
      ESP Fit Center  565 is at   2.969638 -3.672103  1.484589
[...]
  365 Fit       0.017941
  366 Fit       0.021389
  367 Fit       0.010622
  368 Fit       0.015406
  369 Fit       0.019732
  370 Fit       0.025462
  371 Fit       0.002299
  372 Fit       0.009856
  373 Fit       0.015951
  374 Fit       0.021769
  375 Fit       0.007526
  376 Fit       0.009652
  377 Fit       0.016510
  378 Fit      -0.010064
  379 Fit      -0.000940
  380 Fit      -0.027200
  381 Fit      -0.007894
  382 Fit       0.002870
  383 Fit      -0.030696
  384 Fit      -0.007472
  385 Fit       0.002985
  386 Fit      -0.020206
  387 Fit      -0.001810
  388 Fit      -0.012708
  389 Fit       0.011635
  390 Fit       0.012823
  391 Fit       0.016201
  392 Fit       0.016553
  393 Fit       0.010560
  394 Fit       0.005167
  395 Fit       0.007958
  396 Fit       0.013910
  397 Fit       0.016855
  398 Fit       0.019991
  399 Fit       0.023366
  400 Fit       0.022649
  401 Fit       0.011045
  402 Fit       0.010386
  403 Fit       0.017538
  404 Fit       0.020610
  405 Fit       0.026106
  406 Fit       0.023377
  407 Fit       0.025456
  408 Fit       0.025069
  409 Fit       0.026072
  410 Fit       0.027167
  411 Fit       0.021662
  412 Fit       0.025767
  413 Fit       0.026511
  414 Fit       0.028327
  415 Fit       0.032504
  416 Fit       0.027751
  417 Fit       0.029572
  418 Fit       0.033051
  419 Fit       0.041996
  420 Fit       0.042705
  421 Fit       0.053926
  422 Fit       0.039523
  423 Fit       0.047661
  424 Fit       0.035524
  425 Fit       0.040651
  426 Fit       0.040009
  427 Fit       0.026693
  428 Fit       0.028411
  429 Fit       0.027012
  430 Fit       0.027693
  431 Fit       0.029941
  432 Fit       0.026835
  433 Fit       0.027544
  434 Fit       0.028733
  435 Fit       0.031572
  436 Fit       0.026483
  437 Fit       0.028287
  438 Fit       0.030896
  439 Fit       0.024792
  440 Fit       0.028300
  441 Fit       0.013919
  442 Fit       0.012278
  443 Fit       0.007238
  444 Fit       0.022940
  445 Fit       0.020769
  446 Fit       0.018639
  447 Fit       0.013833
  448 Fit       0.003512
  449 Fit       0.024454
  450 Fit       0.021941
  451 Fit       0.017311
  452 Fit       0.010523
  453 Fit       0.027910
  454 Fit       0.024111
  455 Fit       0.021401
  456 Fit       0.020762
  457 Fit       0.004902
  458 Fit       0.047335
  459 Fit       0.032048
  460 Fit       0.022712
  461 Fit       0.015786
  462 Fit       0.050550
  463 Fit       0.039553
  464 Fit       0.032174
  465 Fit       0.026728
  466 Fit       0.024109
  467 Fit       0.043711
  468 Fit       0.036573
  469 Fit       0.031308
  470 Fit       0.028759
  471 Fit       0.036943
  472 Fit       0.032688
  473 Fit       0.043876
  474 Fit       0.038656
  475 Fit       0.020078
  476 Fit       0.016085
  477 Fit       0.023451
  478 Fit       0.037072
  479 Fit       0.036547
  480 Fit       0.035423
  481 Fit       0.031347
  482 Fit       0.027476
  483 Fit       0.025361
  484 Fit       0.030214
  485 Fit       0.031090
  486 Fit       0.057188
  487 Fit       0.031694
  488 Fit       0.038567
  489 Fit       0.047237
  490 Fit       0.030533
  491 Fit       0.036489
  492 Fit       0.039855
  493 Fit       0.038300
  494 Fit       0.028082
  495 Fit       0.025775
  496 Fit       0.032110
  497 Fit      -0.034914
  498 Fit      -0.025669
  499 Fit      -0.021367
  500 Fit      -0.009650
  501 Fit      -0.005636
  502 Fit      -0.008965
  503 Fit       0.019991
  504 Fit       0.008781
  505 Fit       0.008116
  506 Fit       0.001169
  507 Fit       0.017000
  508 Fit       0.025225
  509 Fit       0.007139
  510 Fit       0.041046
  511 Fit       0.027710
  512 Fit       0.048520
  513 Fit       0.040639
  514 Fit       0.058223
  515 Fit      -0.009535
  516 Fit       0.012021
  517 Fit       0.026732
  518 Fit       0.002765
  519 Fit      -0.001172
  520 Fit       0.003373
  521 Fit      -0.013447
  522 Fit       0.006338
  523 Fit       0.011409
  524 Fit       0.014635
  525 Fit       0.007681
  526 Fit       0.022514
  527 Fit       0.007877
  528 Fit      -0.006897
  529 Fit       0.003408
  530 Fit       0.024349
  531 Fit       0.028818
  532 Fit       0.032310
  533 Fit       0.031582
  534 Fit       0.031492
  535 Fit       0.024760
  536 Fit       0.030022
  537 Fit       0.013115
  538 Fit       0.020646
  539 Fit       0.024358
  540 Fit       0.033983
  541 Fit       0.028913
  542 Fit       0.025202
  543 Fit       0.016086
  544 Fit       0.027319
  545 Fit       0.024572
  546 Fit       0.003008
  547 Fit       0.019976
  548 Fit       0.017701
  549 Fit      -0.021807
  550 Fit      -0.007547
  551 Fit      -0.023664
  552 Fit      -0.030157
  553 Fit      -0.038379
  554 Fit       0.004100
  555 Fit      -0.005646
  556 Fit       0.015611
  557 Fit       0.024176
  558 Fit      -0.025148
  559 Fit      -0.030254
  560 Fit      -0.036605
  561 Fit      -0.032089
  562 Fit      -0.039149
  563 Fit      -0.042744
  564 Fit      -0.041621
  565 Fit      -0.037130
  566 Fit      -0.026361
  567 Fit      -0.043482
  568 Fit      -0.043256
  569 Fit      -0.040541
  570 Fit      -0.035336
  571 Fit      -0.036817
  572 Fit      -0.040196
  573 Fit      -0.038808
  574 Fit      -0.034666
  575 Fit      -0.026512
  576 Fit      -0.015291
  577 Fit      -0.024141
  578 Fit      -0.032950
  579 Fit      -0.032364
  580 Fit      -0.026611
  581 Fit      -0.011293
  582 Fit      -0.016303
  583 Fit      -0.021614
  584 Fit      -0.036645
  585 Fit      -0.031761
  586 Fit      -0.029572
  587 Fit      -0.033166
  588 Fit      -0.037839
  589 Fit      -0.040828
  590 Fit      -0.038356
  591 Fit      -0.020010
  592 Fit      -0.013911
  593 Fit      -0.019192
  594 Fit      -0.025325
  595 Fit      -0.030090
  596 Fit      -0.034208
  597 Fit      -0.038174
  598 Fit      -0.041791
  599 Fit       0.006954
  600 Fit      -0.008499
  601 Fit      -0.017360
  602 Fit      -0.022871
  603 Fit      -0.026557
  604 Fit      -0.029674
  605 Fit      -0.033865
  606 Fit      -0.000784
  607 Fit      -0.008577
  608 Fit      -0.011441
  609 Fit      -0.044178
  610 Fit      -0.039632
  611 Fit      -0.043072
  612 Fit      -0.044453
  613 Fit      -0.044312
  614 Fit      -0.035971
  615 Fit      -0.040110
  616 Fit      -0.041704
  617 Fit      -0.042412
  618 Fit      -0.041900
  619 Fit      -0.016249
  620 Fit      -0.030097
  621 Fit      -0.035321
  622 Fit      -0.036886
  623 Fit      -0.036467
  624 Fit      -0.019008
  625 Fit      -0.028120
  626 Fit      -0.029666
  627 Fit      -0.024456
  628 Fit      -0.003744
  629 Fit      -0.017479
  630 Fit      -0.011047
  631 Fit      -0.036101
  632 Fit      -0.041435
  633 Fit      -0.038480
  634 Fit      -0.033062
  635 Fit      -0.033666
  636 Fit      -0.041371
  637 Fit      -0.041102
  638 Fit       0.023853
  639 Fit      -0.009432
  640 Fit      -0.011632
  641 Fit      -0.021626
  642 Fit      -0.010563
  643 Fit       0.015688
  644 Fit       0.012815
  645 Fit       0.015818
  646 Fit       0.019166
  647 Fit       0.009214
  648 Fit       0.013352
  649 Fit       0.017285
  650 Fit       0.022376
  651 Fit       0.002063
  652 Fit       0.008641
  653 Fit       0.014055
  654 Fit       0.020065
  655 Fit       0.008046
  656 Fit       0.015210
  657 Fit      -0.011212
  658 Fit      -0.002396
  659 Fit      -0.022235
  660 Fit      -0.007058
  661 Fit       0.001859
  662 Fit      -0.024264
  663 Fit      -0.006849
  664 Fit       0.002073
  665 Fit      -0.016011
  666 Fit      -0.001667
  667 Fit      -0.012555
  668 Fit       0.009423
  669 Fit       0.010724
  670 Fit       0.013930
  671 Fit       0.014327
  672 Fit       0.008387
  673 Fit       0.003102
  674 Fit       0.006056
  675 Fit       0.012027
  676 Fit       0.014642
  677 Fit       0.017404
  678 Fit       0.020645
  679 Fit       0.016001
  680 Fit       0.015973
  681 Fit       0.018682
  682 Fit       0.023259
  683 Fit       0.019847
  684 Fit       0.021881
  685 Fit       0.022427
  686 Fit       0.022873
  687 Fit       0.017493
  688 Fit       0.023274
  689 Fit       0.023407
  690 Fit       0.024556
  691 Fit       0.026953
  692 Fit       0.034208
  693 Fit       0.025280
  694 Fit       0.026405
  695 Fit       0.028905
  696 Fit       0.034668
  697 Fit       0.037277
  698 Fit       0.045459
  699 Fit       0.034994
  700 Fit       0.040819
  701 Fit       0.050310
  702 Fit       0.037345
  703 Fit       0.036732
  704 Fit       0.024316
  705 Fit       0.025598
  706 Fit       0.024182
  707 Fit       0.024758
  708 Fit       0.026611
  709 Fit       0.023905
  710 Fit       0.024431
  711 Fit       0.025562
  712 Fit       0.027975
  713 Fit       0.023683
  714 Fit       0.025533
  715 Fit       0.028768
  716 Fit       0.022435
  717 Fit       0.026094
  718 Fit       0.010524
  719 Fit       0.008854
  720 Fit       0.005548
  721 Fit       0.017830
  722 Fit       0.015720
  723 Fit       0.012484
  724 Fit       0.006047
  725 Fit       0.022167
  726 Fit       0.019468
  727 Fit       0.016227
  728 Fit       0.010989
  729 Fit       0.020834
  730 Fit       0.018286
  731 Fit       0.046857
  732 Fit       0.030154
  733 Fit       0.020865
  734 Fit       0.014079
  735 Fit       0.049646
  736 Fit       0.037361
  737 Fit       0.029720
  738 Fit       0.024450
  739 Fit       0.021178
  740 Fit       0.041824
  741 Fit       0.034234
  742 Fit       0.029006
  743 Fit       0.025917
  744 Fit       0.034016
  745 Fit       0.041570
  746 Fit       0.013841
  747 Fit       0.012301
  748 Fit       0.021102
  749 Fit       0.032539
  750 Fit       0.031908
  751 Fit       0.028036
  752 Fit       0.024050
  753 Fit       0.021421
  754 Fit       0.025888
  755 Fit       0.027205
  756 Fit       0.027085
  757 Fit       0.043315
  758 Fit       0.026814
  759 Fit       0.032893
  760 Fit       0.036423
  761 Fit       0.035172
  762 Fit       0.024618
  763 Fit       0.021974
  764 Fit       0.028609
  765 Fit      -0.035668
  766 Fit      -0.024396
  767 Fit      -0.025991
  768 Fit      -0.010512
  769 Fit      -0.008295
  770 Fit      -0.012917
  771 Fit       0.018464
  772 Fit       0.006354
  773 Fit       0.005567
  774 Fit      -0.003269
  775 Fit       0.012666
  776 Fit       0.019663
  777 Fit       0.001117
  778 Fit       0.026285
  779 Fit       0.043751
  780 Fit       0.037274
  781 Fit      -0.009417
  782 Fit      -0.023164
  783 Fit       0.011767
  784 Fit       0.004436
  785 Fit      -0.001358
  786 Fit       0.002416
  787 Fit      -0.004296
  788 Fit      -0.011448
  789 Fit       0.004738
  790 Fit       0.009618
  791 Fit       0.006235
  792 Fit       0.010240
  793 Fit       0.013153
  794 Fit       0.015753
  795 Fit       0.019173
  796 Fit       0.006734
  797 Fit       0.006671
  798 Fit      -0.001584
  799 Fit      -0.005439
  800 Fit       0.004134
  801 Fit       0.023619
  802 Fit       0.025141
  803 Fit       0.027580
  804 Fit       0.032055
  805 Fit       0.026036
  806 Fit       0.028600
  807 Fit       0.034002
  808 Fit       0.028129
  809 Fit       0.028828
  810 Fit       0.030375
  811 Fit       0.023272
  812 Fit       0.027655
  813 Fit       0.003375
  814 Fit       0.015817
  815 Fit       0.020283
  816 Fit       0.022925
  817 Fit       0.021013
  818 Fit       0.002950
  819 Fit       0.030381
  820 Fit       0.025919
  821 Fit       0.022636
  822 Fit       0.020839
  823 Fit       0.018386
  824 Fit       0.014770
  825 Fit       0.024567
  826 Fit       0.021898
  827 Fit       0.003937
  828 Fit       0.017924
  829 Fit       0.015737
  830 Fit      -0.008347
  831 Fit      -0.002824
  832 Fit      -0.021426
  833 Fit      -0.027102
  834 Fit       0.002381
  835 Fit       0.015608
  836 Fit       0.022715
  837 Fit      -0.021239
  838 Fit      -0.026656
  839 Fit      -0.030800
  840 Fit      -0.026361
  841 Fit      -0.036668
  842 Fit      -0.036558
  843 Fit      -0.034286
  844 Fit      -0.029575
  845 Fit      -0.039800
  846 Fit      -0.038653
  847 Fit      -0.036782
  848 Fit      -0.033612
  849 Fit      -0.028069
  850 Fit      -0.036254
  851 Fit      -0.036397
  852 Fit      -0.034910
  853 Fit      -0.031958
  854 Fit      -0.026880
  855 Fit      -0.030076
  856 Fit      -0.032082
  857 Fit      -0.030770
  858 Fit      -0.027046
  859 Fit      -0.020320
  860 Fit      -0.010436
  861 Fit      -0.020871
  862 Fit      -0.025364
  863 Fit      -0.024278
  864 Fit      -0.019278
  865 Fit      -0.006712
  866 Fit      -0.010564
  867 Fit      -0.015114
  868 Fit      -0.031015
  869 Fit      -0.027152
  870 Fit      -0.025166
  871 Fit      -0.028233
  872 Fit      -0.032226
  873 Fit      -0.034763
  874 Fit      -0.032805
  875 Fit      -0.018989
  876 Fit      -0.013951
  877 Fit      -0.016214
  878 Fit      -0.020608
  879 Fit      -0.024580
  880 Fit      -0.028047
  881 Fit      -0.031322
  882 Fit      -0.034512
  883 Fit      -0.036997
  884 Fit       0.002919
  885 Fit      -0.007220
  886 Fit      -0.014365
  887 Fit      -0.019279
  888 Fit      -0.022892
  889 Fit      -0.025950
  890 Fit      -0.029252
  891 Fit      -0.033644
  892 Fit       0.001279
  893 Fit      -0.006579
  894 Fit      -0.011693
  895 Fit      -0.014847
  896 Fit      -0.017158
  897 Fit      -0.037143
  898 Fit      -0.038510
  899 Fit      -0.039190
  900 Fit      -0.039009
  901 Fit      -0.029708
  902 Fit      -0.034182
  903 Fit      -0.036503
  904 Fit      -0.037745
  905 Fit      -0.038676
  906 Fit      -0.039722
  907 Fit      -0.022493
  908 Fit      -0.029305
  909 Fit      -0.032586
  910 Fit      -0.034109
  911 Fit      -0.034847
  912 Fit      -0.035076
  913 Fit      -0.016688
  914 Fit      -0.025118
  915 Fit      -0.028614
  916 Fit      -0.029536
  917 Fit      -0.028207
  918 Fit      -0.016783
  919 Fit      -0.021810
  920 Fit      -0.021797
  921 Fit      -0.015526
  922 Fit      -0.010701
  923 Fit      -0.005386
  924 Fit      -0.032474
  925 Fit      -0.036690
  926 Fit      -0.034298
  927 Fit      -0.030419
  928 Fit      -0.025820
  929 Fit      -0.032305
  930 Fit      -0.035968
  931 Fit      -0.035505
  932 Fit      -0.032005
  933 Fit       0.017092
  934 Fit      -0.017103
  935 Fit      -0.019865
  936 Fit      -0.027338
  937 Fit      -0.039325
  938 Fit      -0.007080
  939 Fit      -0.019408
  940 Fit       0.011330
  941 Fit       0.013873
  942 Fit       0.016738
  943 Fit       0.011496
  944 Fit       0.014463
  945 Fit       0.017826
  946 Fit       0.008052
  947 Fit       0.012011
  948 Fit       0.015839
  949 Fit       0.020902
  950 Fit       0.001925
  951 Fit       0.007712
  952 Fit       0.012804
  953 Fit       0.018289
  954 Fit       0.007803
  955 Fit       0.014268
  956 Fit      -0.009652
  957 Fit      -0.002869
  958 Fit      -0.018054
  959 Fit      -0.006835
  960 Fit       0.000798
  961 Fit      -0.016413
  962 Fit      -0.004946
  963 Fit       0.002014
  964 Fit      -0.007252
  965 Fit       0.001007
  966 Fit      -0.016124
  967 Fit       0.007732
  968 Fit       0.008939
  969 Fit       0.011656
  970 Fit       0.011734
  971 Fit       0.006709
  972 Fit       0.002479
  973 Fit       0.004933
  974 Fit       0.010122
  975 Fit       0.012600
  976 Fit       0.014946
  977 Fit       0.017236
  978 Fit       0.017843
  979 Fit       0.012256
  980 Fit       0.007055
  981 Fit       0.013650
  982 Fit       0.015977
  983 Fit       0.019214
  984 Fit       0.016918
  985 Fit       0.019041
  986 Fit       0.018980
  987 Fit       0.018087
  988 Fit       0.014159
  989 Fit       0.020771
  990 Fit       0.020593
  991 Fit       0.021210
  992 Fit       0.022463
  993 Fit       0.025765
  994 Fit       0.022067
  995 Fit       0.022647
  996 Fit       0.024037
  997 Fit       0.026895
  998 Fit       0.038801
  999 Fit       0.038265
 1000 Fit       0.032256
 1001 Fit       0.037351
 1002 Fit       0.034417
 1003 Fit       0.033840
 1004 Fit       0.021979
 1005 Fit       0.022407
 1006 Fit       0.024065
 1007 Fit       0.021904
 1008 Fit       0.022471
 1009 Fit       0.023909
 1010 Fit       0.021281
 1011 Fit       0.022092
 1012 Fit       0.023350
 1013 Fit       0.025753
 1014 Fit       0.021642
 1015 Fit       0.023406
 1016 Fit       0.026618
 1017 Fit       0.021117
 1018 Fit       0.024254
 1019 Fit       0.003659
 1020 Fit       0.002271
 1021 Fit       0.013481
 1022 Fit       0.011200
 1023 Fit       0.008743
 1024 Fit       0.004354
 1025 Fit       0.018164
 1026 Fit       0.015604
 1027 Fit       0.013112
 1028 Fit       0.009273
 1029 Fit       0.002617
 1030 Fit       0.020344
 1031 Fit       0.017397
 1032 Fit       0.014365
 1033 Fit       0.010350
 1034 Fit       0.018847
 1035 Fit       0.024239
 1036 Fit       0.014782
 1037 Fit       0.007454
 1038 Fit       0.035538
 1039 Fit       0.026634
 1040 Fit       0.020804
 1041 Fit       0.016676
 1042 Fit       0.035628
 1043 Fit       0.028810
 1044 Fit       0.024222
 1045 Fit       0.021297
 1046 Fit       0.037943
 1047 Fit       0.031241
 1048 Fit       0.026704
 1049 Fit       0.036000
 1050 Fit       0.032525
 1051 Fit       0.013421
 1052 Fit       0.012579
 1053 Fit       0.018926
 1054 Fit       0.028362
 1055 Fit       0.028341
 1056 Fit       0.025148
 1057 Fit       0.021581
 1058 Fit       0.019321
 1059 Fit       0.022805
 1060 Fit       0.024148
 1061 Fit       0.023516
 1062 Fit       0.029892
 1063 Fit       0.037707
 1064 Fit       0.023948
 1065 Fit       0.029263
 1066 Fit       0.032316
 1067 Fit       0.030775
 1068 Fit       0.022302
 1069 Fit       0.019834
 1070 Fit       0.025731
 1071 Fit      -0.038657
 1072 Fit      -0.029981
 1073 Fit      -0.017825
 1074 Fit      -0.021900
 1075 Fit      -0.006017
 1076 Fit      -0.005933
 1077 Fit      -0.008429
 1078 Fit       0.006646
 1079 Fit       0.005963
 1080 Fit       0.007844
 1081 Fit       0.012881
 1082 Fit       0.017490
 1083 Fit       0.028003
 1084 Fit       0.041054
 -----------------------------------------------------------------
 Leave Link  602 at Sat Feb 17 21:00:11 2018, MaxMem=   33554432 cpu:       0.5

 Test job not archived.
 1\1\GINC-NODE004\SP\RHF\6-31G(d)\C5H12N2O3S1\WULSDORT\17-Feb-2018\0\\#
 HF/6-31G* Geom=AllCheck Guess=Read Pop=(MK,ReadRadii) Integral=(Grid=U
 ltraFine) iop(6/33=2)\\Optimization for frag23-conf2\\0,1\C,0,-2.20749
 10593,-1.4403989542,2.4755666254\C,0,-3.8563734717,-0.0167479899,3.571
 2152824\C,0,-4.6438292898,-1.5706994245,1.8395369169\C,0,-2.0890914442
 ,-5.5491986808,-0.1989904305\C,0,-1.891130299,-2.5922958684,1.50434091
 41\N,0,-2.3970345817,-3.8694499448,2.012458829\N,0,-3.5220186657,-1.05
 47413927,2.6040166025\O,0,-1.3014704593,-0.9066100543,3.1000252411\O,0
 ,-2.4355331644,-6.3494406003,2.2976808204\O,0,-0.2525895468,-5.1618534
 909,1.6499913777\S,0,-1.7013962965,-5.3252780867,1.5556924817\H,0,-4.2
 685757389,0.8650116118,3.0630455075\H,0,-2.9482542974,0.2624532757,4.1
 029287742\H,0,-4.6039584521,-0.3879614941,4.2838279112\H,0,-5.34756751
 17,-2.1178721937,2.4838012185\H,0,-4.3138563457,-2.2342427271,1.039853
 4477\H,0,-5.194885501,-0.7425961747,1.3748113038\H,0,-1.611399729,-6.4
 793867437,-0.5153077692\H,0,-3.1713947444,-5.6241556055,-0.323087718\H
 ,0,-1.6821923651,-4.7127589035,-0.7716403354\H,0,-2.2473733261,-2.3614
 433605,0.4871718037\H,0,-0.8039981283,-2.6605108712,1.4834123307\H,0,-
 3.3936480831,-3.9625578163,2.1765319223\\Version=AM64L-G09RevC.01\Stat
 e=1-A\HF=-927.2334525\RMSD=6.999e-09\Dipole=-2.4190877,0.9093233,-2.03
 23899\Quadrupole=-0.6735978,-5.3023728,5.9759705,-3.8650551,-3.3149763
 ,4.8934813\PG=C01 [X(C5H12N2O3S1)]\\@


 I KNOW YOU BELIEVE YOU UNDERSTAND WHAT YOU THINK I SAID,
 BUT I AM NOT SURE YOU REALIZE THAT WHAT YOU HEARD IS NOT WHAT I MEANT.
 Job cpu time:  0 days  0 hours  2 minutes  4.7 seconds.
 File lengths (MBytes):  RWF=     25 Int=      0 D2E=      0 Chk=      4 Scr=      1
 Normal termination of Gaussian 09 at Sat Feb 17 21:00:11 2018.
