 Entering Gaussian System, Link 0=g09
 Initial command:
 /home/fb_chem/chemsoft/lx24-amd64/Gaussian_09_C.01_NBO_3.1_64_istanbul-64/g09/l1.exe /local/2397433.1.parallel_long/Gau-20634.inp -scrdir=/local/2397433.1.parallel_long/
 Entering Link 1 = /home/fb_chem/chemsoft/lx24-amd64/Gaussian_09_C.01_NBO_3.1_64_istanbul-64/g09/l1.exe PID=     20635.
  
 Copyright (c) 1988,1990,1992,1993,1995,1998,2003,2009,2011,
            Gaussian, Inc.  All Rights Reserved.
  
 This is part of the Gaussian(R) 09 program.  It is based on
 the Gaussian(R) 03 system (copyright 2003, Gaussian, Inc.),
 the Gaussian(R) 98 system (copyright 1998, Gaussian, Inc.),
 the Gaussian(R) 94 system (copyright 1995, Gaussian, Inc.),
 the Gaussian 92(TM) system (copyright 1992, Gaussian, Inc.),
 the Gaussian 90(TM) system (copyright 1990, Gaussian, Inc.),
 the Gaussian 88(TM) system (copyright 1988, Gaussian, Inc.),
 the Gaussian 86(TM) system (copyright 1986, Carnegie Mellon
 University), and the Gaussian 82(TM) system (copyright 1983,
 Carnegie Mellon University). Gaussian is a federally registered
 trademark of Gaussian, Inc.
  
 This software contains proprietary and confidential information,
 including trade secrets, belonging to Gaussian, Inc.
  
 This software is provided under written license and may be
 used, copied, transmitted, or stored only in accord with that
 written license.
  
 The following legend is applicable only to US Government
 contracts under FAR:
  
                    RESTRICTED RIGHTS LEGEND
  
 Use, reproduction and disclosure by the US Government is
 subject to restrictions as set forth in subparagraphs (a)
 and (c) of the Commercial Computer Software - Restricted
 Rights clause in FAR 52.227-19.
  
 Gaussian, Inc.
 340 Quinnipiac St., Bldg. 40, Wallingford CT 06492
  
  
 ---------------------------------------------------------------
 Warning -- This program may not be used in any manner that
 competes with the business of Gaussian, Inc. or will provide
 assistance to any competitor of Gaussian, Inc.  The licensee
 of this program is prohibited from giving any competitor of
 Gaussian, Inc. access to this program.  By using this program,
 the user acknowledges that Gaussian, Inc. is engaged in the
 business of creating and licensing software in the field of
 computational chemistry and represents and warrants to the
 licensee that it is not a competitor of Gaussian, Inc. and that
 it will not use this program in any manner prohibited above.
 ---------------------------------------------------------------
  

 Cite this work as:
 Gaussian 09, Revision C.01,
 M. J. Frisch, G. W. Trucks, H. B. Schlegel, G. E. Scuseria, 
 M. A. Robb, J. R. Cheeseman, G. Scalmani, V. Barone, B. Mennucci, 
 G. A. Petersson, H. Nakatsuji, M. Caricato, X. Li, H. P. Hratchian, 
 A. F. Izmaylov, J. Bloino, G. Zheng, J. L. Sonnenberg, M. Hada, 
 M. Ehara, K. Toyota, R. Fukuda, J. Hasegawa, M. Ishida, T. Nakajima, 
 Y. Honda, O. Kitao, H. Nakai, T. Vreven, J. A. Montgomery, Jr., 
 J. E. Peralta, F. Ogliaro, M. Bearpark, J. J. Heyd, E. Brothers, 
 K. N. Kudin, V. N. Staroverov, T. Keith, R. Kobayashi, J. Normand, 
 K. Raghavachari, A. Rendell, J. C. Burant, S. S. Iyengar, J. Tomasi, 
 M. Cossi, N. Rega, J. M. Millam, M. Klene, J. E. Knox, J. B. Cross, 
 V. Bakken, C. Adamo, J. Jaramillo, R. Gomperts, R. E. Stratmann, 
 O. Yazyev, A. J. Austin, R. Cammi, C. Pomelli, J. W. Ochterski, 
 R. L. Martin, K. Morokuma, V. G. Zakrzewski, G. A. Voth, 
 P. Salvador, J. J. Dannenberg, S. Dapprich, A. D. Daniels, 
 O. Farkas, J. B. Foresman, J. V. Ortiz, J. Cioslowski, 
 and D. J. Fox, Gaussian, Inc., Wallingford CT, 2010.
 
 ******************************************
 Gaussian 09:  AM64L-G09RevC.01 23-Sep-2011
                16-Feb-2018 
 ******************************************
 %nprocs=4
 Will use up to    4 processors via shared memory.
 %chk=frag52-conf0.chk
 ---------------------------------------------------------
 #B3LYP/6-31G* Integral=(Grid=UltraFine) freq Opt pop=none
 ---------------------------------------------------------
 1/14=-1,18=20,19=15,26=3,38=1/1,3;
 2/9=110,12=2,17=6,18=5,40=1/2;
 3/5=1,6=6,7=1,11=2,16=1,25=1,30=1,71=1,74=-5,75=-5/1,2,3;
 4//1;
 5/5=2,38=5/2;
 7//1,2,3,16;
 1/14=-1,18=20,19=15/3(2);
 2/9=110/2;
 99//99;
 2/9=110/2;
 3/5=1,6=6,7=1,11=2,16=1,25=1,30=1,71=1,74=-5,75=-5/1,2,3;
 4/5=5,16=3/1;
 5/5=2,38=5/2;
 7//1,2,3,16;
 1/14=-1,18=20,19=15/3(-5);
 2/9=110/2;
 99/9=1/99;
 -----------------------------
 Optimization for frag52-conf0
 -----------------------------
 Charge =  0 Multiplicity = 1
 Symbolic Z-Matrix:
 C                    -0.84145  -2.69784   3.14023 
 C                    -0.38854  -1.89431   5.35517 
 C                    -2.02742  -3.20957   3.63491 
 C                     0.00782  -2.02768   4.01963 
 C                    -1.58783  -2.45375   5.7722 
 C                     2.09911   0.70242   2.57189 
 C                     1.69038   2.09919   2.19162 
 C                     1.29075  -1.41408   3.53516 
 N                    -2.41558  -3.09528   4.92797 
 N                    -2.02203  -2.30252   7.06913 
 N                     1.08261  -0.05358   3.09645 
 O                     3.25114   0.29199   2.44628 
 H                    -0.5928   -2.81611   2.08942 
 H                     0.23545  -1.35423   6.06247 
 H                    -2.71855  -3.73666   2.98093 
 H                     1.77698   2.74959   3.06596 
 H                     2.34601   2.46651   1.39733 
 H                     0.6595    2.11879   1.82683 
 H                     2.04628  -1.41189   4.32984 
 H                     1.70921  -1.9916    2.70222 
 H                    -1.32996  -2.31388   7.81205 
 H                    -2.90747  -2.75069   7.28595 
 H                     0.15843   0.35719   3.19672 
 

 GradGradGradGradGradGradGradGradGradGradGradGradGradGradGradGradGradGrad
 Berny optimization.
 Initialization pass.
                           ----------------------------
                           !    Initial Parameters    !
                           ! (Angstroms and Degrees)  !
 --------------------------                            --------------------------
 ! Name  Definition              Value          Derivative Info.                !
 --------------------------------------------------------------------------------
 ! R1    R(1,3)                  1.3831         estimate D2E/DX2                !
 ! R2    R(1,4)                  1.3942         estimate D2E/DX2                !
 ! R3    R(1,13)                 1.0863         estimate D2E/DX2                !
 ! R4    R(2,4)                  1.3995         estimate D2E/DX2                !
 ! R5    R(2,5)                  1.3875         estimate D2E/DX2                !
 ! R6    R(2,14)                 1.0869         estimate D2E/DX2                !
 ! R7    R(3,9)                  1.3549         estimate D2E/DX2                !
 ! R8    R(3,15)                 1.0877         estimate D2E/DX2                !
 ! R9    R(4,8)                  1.5024         estimate D2E/DX2                !
 ! R10   R(5,9)                  1.3452         estimate D2E/DX2                !
 ! R11   R(5,10)                 1.376          estimate D2E/DX2                !
 ! R12   R(6,7)                  1.5042         estimate D2E/DX2                !
 ! R13   R(6,11)                 1.3711         estimate D2E/DX2                !
 ! R14   R(6,12)                 1.2294         estimate D2E/DX2                !
 ! R15   R(7,16)                 1.0932         estimate D2E/DX2                !
 ! R16   R(7,17)                 1.0935         estimate D2E/DX2                !
 ! R17   R(7,18)                 1.0937         estimate D2E/DX2                !
 ! R18   R(8,11)                 1.4446         estimate D2E/DX2                !
 ! R19   R(8,19)                 1.0965         estimate D2E/DX2                !
 ! R20   R(8,20)                 1.0966         estimate D2E/DX2                !
 ! R21   R(10,21)                1.0154         estimate D2E/DX2                !
 ! R22   R(10,22)                1.0158         estimate D2E/DX2                !
 ! R23   R(11,23)                1.0163         estimate D2E/DX2                !
 ! A1    A(3,1,4)              118.3311         estimate D2E/DX2                !
 ! A2    A(3,1,13)             120.1294         estimate D2E/DX2                !
 ! A3    A(4,1,13)             121.5382         estimate D2E/DX2                !
 ! A4    A(4,2,5)              119.5515         estimate D2E/DX2                !
 ! A5    A(4,2,14)             120.3832         estimate D2E/DX2                !
 ! A6    A(5,2,14)             120.065          estimate D2E/DX2                !
 ! A7    A(1,3,9)              123.7635         estimate D2E/DX2                !
 ! A8    A(1,3,15)             120.6011         estimate D2E/DX2                !
 ! A9    A(9,3,15)             115.6347         estimate D2E/DX2                !
 ! A10   A(1,4,2)              118.3743         estimate D2E/DX2                !
 ! A11   A(1,4,8)              120.8708         estimate D2E/DX2                !
 ! A12   A(2,4,8)              120.708          estimate D2E/DX2                !
 ! A13   A(2,5,9)              122.3805         estimate D2E/DX2                !
 ! A14   A(2,5,10)             120.7782         estimate D2E/DX2                !
 ! A15   A(9,5,10)             116.729          estimate D2E/DX2                !
 ! A16   A(7,6,11)             114.0336         estimate D2E/DX2                !
 ! A17   A(7,6,12)             122.6016         estimate D2E/DX2                !
 ! A18   A(11,6,12)            123.3482         estimate D2E/DX2                !
 ! A19   A(6,7,16)             109.1927         estimate D2E/DX2                !
 ! A20   A(6,7,17)             109.4296         estimate D2E/DX2                !
 ! A21   A(6,7,18)             110.921          estimate D2E/DX2                !
 ! A22   A(16,7,17)            109.4896         estimate D2E/DX2                !
 ! A23   A(16,7,18)            109.3158         estimate D2E/DX2                !
 ! A24   A(17,7,18)            108.4726         estimate D2E/DX2                !
 ! A25   A(4,8,11)             111.0726         estimate D2E/DX2                !
 ! A26   A(4,8,19)             110.8244         estimate D2E/DX2                !
 ! A27   A(4,8,20)             110.8373         estimate D2E/DX2                !
 ! A28   A(11,8,19)            108.512          estimate D2E/DX2                !
 ! A29   A(11,8,20)            108.6821         estimate D2E/DX2                !
 ! A30   A(19,8,20)            106.7744         estimate D2E/DX2                !
 ! A31   A(3,9,5)              117.5741         estimate D2E/DX2                !
 ! A32   A(5,10,21)            118.249          estimate D2E/DX2                !
 ! A33   A(5,10,22)            115.3237         estimate D2E/DX2                !
 ! A34   A(21,10,22)           115.6582         estimate D2E/DX2                !
 ! A35   A(6,11,8)             121.9154         estimate D2E/DX2                !
 ! A36   A(6,11,23)            119.2775         estimate D2E/DX2                !
 ! A37   A(8,11,23)            118.7976         estimate D2E/DX2                !
 ! D1    D(4,1,3,9)              0.1451         estimate D2E/DX2                !
 ! D2    D(4,1,3,15)           179.8362         estimate D2E/DX2                !
 ! D3    D(13,1,3,9)          -179.4556         estimate D2E/DX2                !
 ! D4    D(13,1,3,15)            0.2355         estimate D2E/DX2                !
 ! D5    D(3,1,4,2)             -0.6538         estimate D2E/DX2                !
 ! D6    D(3,1,4,8)           -178.1786         estimate D2E/DX2                !
 ! D7    D(13,1,4,2)           178.941          estimate D2E/DX2                !
 ! D8    D(13,1,4,8)             1.4162         estimate D2E/DX2                !
 ! D9    D(5,2,4,1)              1.5155         estimate D2E/DX2                !
 ! D10   D(5,2,4,8)            179.0446         estimate D2E/DX2                !
 ! D11   D(14,2,4,1)          -178.308          estimate D2E/DX2                !
 ! D12   D(14,2,4,8)            -0.779          estimate D2E/DX2                !
 ! D13   D(4,2,5,9)             -1.9482         estimate D2E/DX2                !
 ! D14   D(4,2,5,10)          -177.9689         estimate D2E/DX2                !
 ! D15   D(14,2,5,9)           177.8759         estimate D2E/DX2                !
 ! D16   D(14,2,5,10)            1.8552         estimate D2E/DX2                !
 ! D17   D(1,3,9,5)             -0.495          estimate D2E/DX2                !
 ! D18   D(15,3,9,5)           179.8            estimate D2E/DX2                !
 ! D19   D(1,4,8,11)            89.2056         estimate D2E/DX2                !
 ! D20   D(1,4,8,19)          -150.0909         estimate D2E/DX2                !
 ! D21   D(1,4,8,20)           -31.7219         estimate D2E/DX2                !
 ! D22   D(2,4,8,11)           -88.2614         estimate D2E/DX2                !
 ! D23   D(2,4,8,19)            32.4421         estimate D2E/DX2                !
 ! D24   D(2,4,8,20)           150.8111         estimate D2E/DX2                !
 ! D25   D(2,5,9,3)              1.4013         estimate D2E/DX2                !
 ! D26   D(10,5,9,3)           177.5736         estimate D2E/DX2                !
 ! D27   D(2,5,10,21)          -36.6888         estimate D2E/DX2                !
 ! D28   D(2,5,10,22)         -179.6334         estimate D2E/DX2                !
 ! D29   D(9,5,10,21)          147.0736         estimate D2E/DX2                !
 ! D30   D(9,5,10,22)            4.1289         estimate D2E/DX2                !
 ! D31   D(11,6,7,16)           86.4701         estimate D2E/DX2                !
 ! D32   D(11,6,7,17)         -153.7024         estimate D2E/DX2                !
 ! D33   D(11,6,7,18)          -34.0627         estimate D2E/DX2                !
 ! D34   D(12,6,7,16)          -92.0883         estimate D2E/DX2                !
 ! D35   D(12,6,7,17)           27.7393         estimate D2E/DX2                !
 ! D36   D(12,6,7,18)          147.3789         estimate D2E/DX2                !
 ! D37   D(7,6,11,8)          -179.1684         estimate D2E/DX2                !
 ! D38   D(7,6,11,23)           -0.3003         estimate D2E/DX2                !
 ! D39   D(12,6,11,8)           -0.6222         estimate D2E/DX2                !
 ! D40   D(12,6,11,23)         178.2459         estimate D2E/DX2                !
 ! D41   D(4,8,11,6)          -177.9458         estimate D2E/DX2                !
 ! D42   D(4,8,11,23)            3.1808         estimate D2E/DX2                !
 ! D43   D(19,8,11,6)           59.9955         estimate D2E/DX2                !
 ! D44   D(19,8,11,23)        -118.8778         estimate D2E/DX2                !
 ! D45   D(20,8,11,6)          -55.7577         estimate D2E/DX2                !
 ! D46   D(20,8,11,23)         125.3689         estimate D2E/DX2                !
 --------------------------------------------------------------------------------
 Trust Radius=3.00D-01 FncErr=1.00D-07 GrdErr=1.00D-06
 Number of steps in this run=    116 maximum allowed number of steps=    138.
 GradGradGradGradGradGradGradGradGradGradGradGradGradGradGradGradGradGrad

                          Input orientation:                          
 ---------------------------------------------------------------------
 Center     Atomic      Atomic             Coordinates (Angstroms)
 Number     Number       Type             X           Y           Z
 ---------------------------------------------------------------------
      1          6           0       -0.841455   -2.697837    3.140229
      2          6           0       -0.388543   -1.894311    5.355165
      3          6           0       -2.027417   -3.209572    3.634908
      4          6           0        0.007817   -2.027675    4.019628
      5          6           0       -1.587826   -2.453750    5.772197
      6          6           0        2.099105    0.702419    2.571892
      7          6           0        1.690380    2.099187    2.191616
      8          6           0        1.290748   -1.414076    3.535165
      9          7           0       -2.415584   -3.095279    4.927967
     10          7           0       -2.022028   -2.302518    7.069132
     11          7           0        1.082614   -0.053583    3.096451
     12          8           0        3.251135    0.291994    2.446282
     13          1           0       -0.592803   -2.816111    2.089422
     14          1           0        0.235450   -1.354233    6.062471
     15          1           0       -2.718552   -3.736660    2.980929
     16          1           0        1.776977    2.749587    3.065963
     17          1           0        2.346005    2.466505    1.397326
     18          1           0        0.659497    2.118790    1.826830
     19          1           0        2.046281   -1.411893    4.329836
     20          1           0        1.709210   -1.991601    2.702223
     21          1           0       -1.329958   -2.313883    7.812051
     22          1           0       -2.907468   -2.750688    7.285945
     23          1           0        0.158435    0.357189    3.196717
 ---------------------------------------------------------------------
                    Distance matrix (angstroms):
                    1          2          3          4          5
     1  C    0.000000
     2  C    2.399318   0.000000
     3  C    1.383144   2.715714   0.000000
     4  C    1.394175   1.399481   2.384757   0.000000
     5  C    2.746618   1.387505   2.309223   2.408135   0.000000
     6  C    4.531185   4.547307   5.784623   3.731332   5.813503
     7  C    5.506496   5.502544   6.639882   4.817016   6.655557
     8  C    2.519981   2.522507   3.774118   1.502372   3.790966
     9  N    2.414923   2.394518   1.354894   2.799594   1.345164
    10  N    4.121445   2.402621   3.551995   3.673593   1.376024
    11  N    3.270479   3.264103   4.463462   2.429914   4.477908
    12  O    5.115657   5.146726   6.444913   4.286653   6.482003
    13  H    1.086283   3.399487   2.145100   2.169808   3.831998
    14  H    3.391828   1.086891   3.802093   2.162995   2.148845
    15  H    2.151284   3.802656   1.087740   3.381214   3.273466
    16  H    6.044512   5.612103   7.092861   5.182821   6.761680
    17  H    6.314114   6.492993   7.506760   5.704493   7.669644
    18  H    5.213230   5.445412   6.235390   4.735633   6.443951
    19  H    3.377549   2.685590   4.506616   2.151918   4.046308
    20  H    2.682631   3.383509   4.039274   2.152114   4.528661
    21  H    4.712959   2.664319   4.328652   4.031629   2.060840
    22  H    4.632297   3.287290   3.783535   4.437394   2.030039
    23  H    3.214989   3.166596   4.206155   2.527340   4.193316
                    6          7          8          9         10
     6  C    0.000000
     7  C    1.504203   0.000000
     8  C    2.461887   3.782572   0.000000
     9  N    6.352638   7.164428   4.301539   0.000000
    10  N    6.799893   7.546333   4.924707   2.316882   0.000000
    11  N    1.371115   2.412992   1.444552   4.984350   5.520751
    12  O    1.229390   2.401408   2.817705   7.052948   7.477197
    13  H    4.456366   5.420657   2.757469   3.384937   5.206147
    14  H    4.459503   5.387620   2.739436   3.368430   2.647417
    15  H    6.563730   7.356548   4.666482   2.072225   4.388088
    16  H    2.130439   1.093162   4.218135   7.430147   7.482082
    17  H    2.133674   1.093463   4.554430   8.128443   8.601899
    18  H    2.152602   1.093697   3.974673   6.801448   7.363441
    19  H    2.750177   4.126298   1.096512   4.806224   4.984786
    20  H    2.725206   4.122575   1.096557   4.815180   5.752277
    21  H    6.950958   7.758024   5.096029   3.179167   1.015391
    22  H    7.694934   8.403195   5.786182   2.433260   1.015809
    23  H    2.067799   2.528170   2.129334   4.641372   5.179194
                   11         12         13         14         15
    11  N    0.000000
    12  O    2.290116   0.000000
    13  H    3.384182   4.956160   0.000000
    14  H    3.347633   4.988110   4.313723   0.000000
    15  H    5.294077   7.221707   2.482136   4.888557   0.000000
    16  H    2.888050   2.932049   6.127518   5.310056   7.892300
    17  H    3.291509   2.578385   6.084540   6.388744   8.163136
    18  H    2.551504   3.230711   5.098084   5.493847   6.857802
    19  H    2.072413   2.811170   3.735779   2.506882   5.470623
    20  H    2.074596   2.767281   2.520834   3.724174   4.767387
    21  H    5.759023   7.521203   5.791728   2.536230   5.224197
    22  H    6.383336   8.402895   5.689095   3.650330   4.420520
    23  H    1.016314   3.183112   3.443878   3.338778   5.008314
                   16         17         18         19         20
    16  H    0.000000
    17  H    1.785575   0.000000
    18  H    1.783849   1.774736   0.000000
    19  H    4.357501   4.871490   4.544660   0.000000
    20  H    4.755603   4.688600   4.331688   1.760341   0.000000
    21  H    7.603757   8.804176   7.709047   4.933397   5.954053
    22  H    8.366917   9.460122   8.138611   5.922042   6.549842
    23  H    2.891425   3.531641   2.287114   2.824460   2.857664
                   21         22         23
    21  H    0.000000
    22  H    1.719338   0.000000
    23  H    5.536357   5.981676   0.000000
 Stoichiometry    C8H11N3O
 Framework group  C1[X(C8H11N3O)]
 Deg. of freedom    63
 Full point group                 C1      NOp   1
 Largest Abelian subgroup         C1      NOp   1
 Largest concise Abelian subgroup C1      NOp   1
                         Standard orientation:                         
 ---------------------------------------------------------------------
 Center     Atomic      Atomic             Coordinates (Angstroms)
 Number     Number       Type             X           Y           Z
 ---------------------------------------------------------------------
      1          6           0       -1.034617    1.590952   -0.018304
      2          6           0       -1.340130   -0.755389   -0.415885
      3          6           0       -2.345713    1.624426    0.421005
      4          6           0       -0.514369    0.373794   -0.456017
      5          6           0       -2.650271   -0.629821    0.023355
      6          6           0        3.144153   -0.159826    0.047274
      7          6           0        3.878123   -0.510265    1.312622
      8          6           0        0.914533    0.263685   -0.906833
      9          7           0       -3.156755    0.539593    0.453949
     10          7           0       -3.471591   -1.730249    0.112423
     11          7           0        1.786259   -0.049256    0.201721
     12          8           0        3.715680   -0.014698   -1.031474
     13          1           0       -0.433895    2.495990   -0.011180
     14          1           0       -0.959573   -1.725935   -0.723377
     15          1           0       -2.788202    2.553669    0.772983
     16          1           0        3.892237   -1.596941    1.430690
     17          1           0        4.903974   -0.136366    1.253526
     18          1           0        3.394064   -0.058069    2.182897
     19          1           0        1.024137   -0.518450   -1.667483
     20          1           0        1.252150    1.200741   -1.365501
     21          1           0       -3.386255   -2.452262   -0.596403
     22          1           0       -4.415398   -1.542790    0.437932
     23          1           0        1.375670   -0.207945    1.117761
 ---------------------------------------------------------------------
 Rotational constants (GHZ):      2.2166408      0.4073903      0.3825508
 Standard basis: 6-31G(d) (6D, 7F)
 There are   202 symmetry adapted basis functions of A   symmetry.
 Integral buffers will be    131072 words long.
 Raffenetti 2 integral format.
 Two-electron integral symmetry is turned on.
   202 basis functions,   380 primitive gaussians,   202 cartesian basis functions
    44 alpha electrons       44 beta electrons
       nuclear repulsion energy       657.9324837325 Hartrees.
 NAtoms=   23 NActive=   23 NUniq=   23 SFac= 1.00D+00 NAtFMM=   60 NAOKFM=F Big=F
 One-electron integrals computed using PRISM.
 NBasis=   202 RedAO= T  NBF=   202
 NBsUse=   202 1.00D-06 NBFU=   202
 Harris functional with IExCor=  402 diagonalized for initial guess.
 ExpMin= 1.61D-01 ExpMax= 5.48D+03 ExpMxC= 8.25D+02 IAcc=3 IRadAn=         5 AccDes= 0.00D+00
 HarFok:  IExCor=  402 AccDes= 0.00D+00 IRadAn=         5 IDoV= 1
 ScaDFX=  1.000000  1.000000  1.000000  1.000000
 FoFCou: FMM=F IPFlag=           0 FMFlag=      100000 FMFlg1=           0
         NFxFlg=           0 DoJE=T BraDBF=F KetDBF=T FulRan=T
         Omega=  0.000000  0.000000  1.000000  0.000000  0.000000 ICntrl=     500 IOpCl=  0
         NMat0=    1 NMatS0=    1 NMatT0=    0 NMatD0=    1 NMtDS0=    0 NMtDT0=    0
         I1Cent=           4 NGrid=           0.
 Petite list used in FoFCou.
 Initial guess orbital symmetries:
       Occupied  (A) (A) (A) (A) (A) (A) (A) (A) (A) (A) (A) (A)
                 (A) (A) (A) (A) (A) (A) (A) (A) (A) (A) (A) (A)
                 (A) (A) (A) (A) (A) (A) (A) (A) (A) (A) (A) (A)
                 (A) (A) (A) (A) (A) (A) (A) (A)
       Virtual   (A) (A) (A) (A) (A) (A) (A) (A) (A) (A) (A) (A)
                 (A) (A) (A) (A) (A) (A) (A) (A) (A) (A) (A) (A)
                 (A) (A) (A) (A) (A) (A) (A) (A) (A) (A) (A) (A)
                 (A) (A) (A) (A) (A) (A) (A) (A) (A) (A) (A) (A)
                 (A) (A) (A) (A) (A) (A) (A) (A) (A) (A) (A) (A)
                 (A) (A) (A) (A) (A) (A) (A) (A) (A) (A) (A) (A)
                 (A) (A) (A) (A) (A) (A) (A) (A) (A) (A) (A) (A)
                 (A) (A) (A) (A) (A) (A) (A) (A) (A) (A) (A) (A)
                 (A) (A) (A) (A) (A) (A) (A) (A) (A) (A) (A) (A)
                 (A) (A) (A) (A) (A) (A) (A) (A) (A) (A) (A) (A)
                 (A) (A) (A) (A) (A) (A) (A) (A) (A) (A) (A) (A)
                 (A) (A) (A) (A) (A) (A) (A) (A) (A) (A) (A) (A)
                 (A) (A) (A) (A) (A) (A) (A) (A) (A) (A) (A) (A)
                 (A) (A)
 The electronic state of the initial guess is 1-A.
 Requested convergence on RMS density matrix=1.00D-08 within 128 cycles.
 Requested convergence on MAX density matrix=1.00D-06.
 Requested convergence on             energy=1.00D-06.
 No special actions if energy rises.
 Integral accuracy reduced to 1.0D-05 until final iterations.
 Initial convergence to 1.0D-05 achieved.  Increase integral accuracy.
 SCF Done:  E(RB3LYP) =  -550.971003627     A.U. after   15 cycles
             Convg  =    0.4140D-08             -V/T =  2.0093
 Calling FoFJK, ICntrl=      2127 FMM=F ISym2X=0 I1Cent= 0 IOpClX= 0 NMat=1 NMatS=1 NMatT=0.
 ***** Axes restored to original set *****
 -------------------------------------------------------------------
 Center     Atomic                   Forces (Hartrees/Bohr)
 Number     Number              X              Y              Z
 -------------------------------------------------------------------
      1        6          -0.000225165   -0.002031695   -0.006884637
      2        6           0.019476781    0.004616347   -0.010749238
      3        6          -0.009280242    0.002311888    0.018356263
      4        6          -0.000645199    0.002458308    0.010364914
      5        6          -0.015275465   -0.005861969   -0.003636490
      6        6           0.006157929   -0.006696440    0.001127044
      7        6          -0.002555470    0.004496376   -0.005941059
      8        6           0.008161090   -0.004859824    0.002581056
      9        7           0.001870726   -0.003880696   -0.012397136
     10        7          -0.003879048    0.001366562    0.009398501
     11        7          -0.003380020    0.012182113   -0.005124692
     12        8          -0.008199155   -0.002767689    0.002467477
     13        1           0.001518394   -0.000107551    0.000430235
     14        1           0.001010829    0.000042800   -0.000138942
     15        1          -0.000830755   -0.000307968    0.000473807
     16        1          -0.000241276    0.003343753   -0.000127307
     17        1           0.000631328    0.000227524    0.002630618
     18        1          -0.001803372    0.003294546    0.000932052
     19        1           0.000725746   -0.002281889    0.000709124
     20        1           0.000169775   -0.001096586    0.000555505
     21        1          -0.003920474    0.000568143   -0.003421730
     22        1           0.005516321   -0.001759939   -0.000942020
     23        1           0.004996723   -0.003256115   -0.000663345
 -------------------------------------------------------------------
 Cartesian Forces:  Max     0.019476781 RMS     0.005801415

 GradGradGradGradGradGradGradGradGradGradGradGradGradGradGradGradGradGrad
 Berny optimization.
 Internal  Forces:  Max     0.019291311 RMS     0.003906162
 Search for a local minimum.
 Step number   1 out of a maximum of  116
 All quantities printed in internal units (Hartrees-Bohrs-Radians)
 Mixed Optimization -- RFO/linear search
 Second derivative matrix not updated -- first step.
 ITU=  0
     Eigenvalues ---    0.00710   0.00735   0.01102   0.01263   0.01494
     Eigenvalues ---    0.01569   0.02009   0.02074   0.02143   0.02178
     Eigenvalues ---    0.02208   0.02234   0.02266   0.02304   0.02340
     Eigenvalues ---    0.03551   0.05253   0.06616   0.07349   0.07512
     Eigenvalues ---    0.09891   0.13195   0.15998   0.16000   0.16000
     Eigenvalues ---    0.16000   0.16000   0.16000   0.16000   0.16000
     Eigenvalues ---    0.16000   0.21947   0.22000   0.22312   0.23476
     Eigenvalues ---    0.24540   0.24962   0.24975   0.24992   0.25000
     Eigenvalues ---    0.31940   0.32130   0.34066   0.34071   0.34389
     Eigenvalues ---    0.34415   0.34450   0.35075   0.35174   0.35246
     Eigenvalues ---    0.38968   0.43134   0.44110   0.44931   0.45013
     Eigenvalues ---    0.45082   0.46712   0.48191   0.49836   0.50763
     Eigenvalues ---    0.52602   0.54891   0.91341
 RFO step:  Lambda=-5.28744603D-03 EMin= 7.10344453D-03
 Linear search not attempted -- first point.
 Iteration  1 RMS(Cart)=  0.04161027 RMS(Int)=  0.00132148
 Iteration  2 RMS(Cart)=  0.00133072 RMS(Int)=  0.00016168
 Iteration  3 RMS(Cart)=  0.00000097 RMS(Int)=  0.00016168
 Variable       Old X    -DE/DX   Delta X   Delta X   Delta X     New X
                                 (Linear)    (Quad)   (Total)
    R1        2.61376   0.00854   0.00000   0.01647   0.01646   2.63022
    R2        2.63461   0.00705   0.00000   0.01524   0.01527   2.64987
    R3        2.05278  -0.00006   0.00000  -0.00016  -0.00016   2.05262
    R4        2.64464  -0.00763   0.00000  -0.01524  -0.01521   2.62942
    R5        2.62200   0.01929   0.00000   0.04085   0.04086   2.66286
    R6        2.05393   0.00051   0.00000   0.00143   0.00143   2.05536
    R7        2.56038  -0.01505   0.00000  -0.02868  -0.02871   2.53167
    R8        2.05553   0.00039   0.00000   0.00110   0.00110   2.05663
    R9        2.83907   0.00531   0.00000   0.01627   0.01627   2.85534
   R10        2.54199  -0.00086   0.00000  -0.00175  -0.00178   2.54021
   R11        2.60031   0.00549   0.00000   0.01089   0.01089   2.61120
   R12        2.84253   0.01226   0.00000   0.03777   0.03777   2.88030
   R13        2.59103  -0.00383   0.00000  -0.00746  -0.00746   2.58357
   R14        2.32321  -0.00701   0.00000  -0.00763  -0.00763   2.31558
   R15        2.06578   0.00187   0.00000   0.00534   0.00534   2.07112
   R16        2.06635  -0.00146   0.00000  -0.00417  -0.00417   2.06218
   R17        2.06679   0.00145   0.00000   0.00415   0.00415   2.07093
   R18        2.72981   0.01225   0.00000   0.03103   0.03103   2.76083
   R19        2.07211   0.00101   0.00000   0.00292   0.00292   2.07502
   R20        2.07219   0.00022   0.00000   0.00064   0.00064   2.07283
   R21        1.91881  -0.00518   0.00000  -0.01136  -0.01136   1.90745
   R22        1.91960  -0.00423   0.00000  -0.00929  -0.00929   1.91031
   R23        1.92056  -0.00593   0.00000  -0.01303  -0.01303   1.90752
    A1        2.06527   0.00094   0.00000   0.00287   0.00286   2.06813
    A2        2.09665   0.00088   0.00000   0.00673   0.00673   2.10338
    A3        2.12124  -0.00182   0.00000  -0.00956  -0.00956   2.11168
    A4        2.08657  -0.00217   0.00000  -0.00501  -0.00499   2.08158
    A5        2.10108   0.00028   0.00000  -0.00234  -0.00235   2.09873
    A6        2.09553   0.00188   0.00000   0.00736   0.00735   2.10288
    A7        2.16008   0.00328   0.00000   0.01020   0.01003   2.17011
    A8        2.10489  -0.00069   0.00000   0.00071   0.00064   2.10553
    A9        2.01821  -0.00259   0.00000  -0.01079  -0.01086   2.00734
   A10        2.06602  -0.00264   0.00000  -0.00742  -0.00739   2.05863
   A11        2.10959   0.00225   0.00000   0.00736   0.00734   2.11693
   A12        2.10675   0.00038   0.00000   0.00004   0.00002   2.10677
   A13        2.13594   0.00161   0.00000   0.00807   0.00786   2.14380
   A14        2.10798   0.00160   0.00000   0.00631   0.00614   2.11412
   A15        2.03731  -0.00315   0.00000  -0.01231  -0.01248   2.02483
   A16        1.99026   0.00685   0.00000   0.02682   0.02682   2.01708
   A17        2.13980   0.00310   0.00000   0.01211   0.01211   2.15191
   A18        2.15283  -0.00995   0.00000  -0.03900  -0.03900   2.11383
   A19        1.90577   0.00271   0.00000   0.01258   0.01245   1.91822
   A20        1.90991  -0.00149   0.00000  -0.00960  -0.00966   1.90025
   A21        1.93594   0.00446   0.00000   0.03143   0.03125   1.96719
   A22        1.91095  -0.00237   0.00000  -0.02340  -0.02340   1.88755
   A23        1.90792  -0.00340   0.00000  -0.01923  -0.01947   1.88845
   A24        1.89320  -0.00001   0.00000   0.00743   0.00734   1.90054
   A25        1.93858  -0.00205   0.00000  -0.00773  -0.00772   1.93086
   A26        1.93425  -0.00041   0.00000  -0.00402  -0.00402   1.93023
   A27        1.93448  -0.00014   0.00000  -0.00761  -0.00763   1.92685
   A28        1.89389   0.00249   0.00000   0.02198   0.02196   1.91586
   A29        1.89686   0.00110   0.00000   0.00603   0.00597   1.90283
   A30        1.86356  -0.00085   0.00000  -0.00782  -0.00795   1.85561
   A31        2.05206  -0.00102   0.00000  -0.00819  -0.00831   2.04375
   A32        2.06383   0.00091   0.00000  -0.00429  -0.00501   2.05882
   A33        2.01278  -0.00240   0.00000  -0.02441  -0.02514   1.98764
   A34        2.01862  -0.00031   0.00000  -0.01411  -0.01507   2.00355
   A35        2.12782  -0.00184   0.00000  -0.00818  -0.00819   2.11963
   A36        2.08179   0.00173   0.00000   0.00894   0.00893   2.09072
   A37        2.07341   0.00011   0.00000  -0.00088  -0.00089   2.07252
    D1        0.00253  -0.00065   0.00000  -0.02197  -0.02205  -0.01952
    D2        3.13873   0.00016   0.00000   0.00587   0.00587  -3.13858
    D3       -3.13209  -0.00083   0.00000  -0.02819  -0.02831   3.12278
    D4        0.00411  -0.00002   0.00000  -0.00035  -0.00039   0.00372
    D5       -0.01141   0.00017   0.00000   0.00716   0.00711  -0.00430
    D6       -3.10980   0.00017   0.00000   0.00783   0.00780  -3.10201
    D7        3.12311   0.00036   0.00000   0.01355   0.01347   3.13658
    D8        0.02472   0.00036   0.00000   0.01422   0.01415   0.03887
    D9        0.02645  -0.00020   0.00000  -0.00547  -0.00552   0.02094
   D10        3.12492  -0.00015   0.00000  -0.00595  -0.00601   3.11891
   D11       -3.11206  -0.00029   0.00000  -0.00985  -0.00986  -3.12192
   D12       -0.01360  -0.00025   0.00000  -0.01033  -0.01035  -0.02395
   D13       -0.03400   0.00045   0.00000   0.01740   0.01751  -0.01649
   D14       -3.10614  -0.00044   0.00000  -0.01883  -0.01894  -3.12509
   D15        3.10452   0.00054   0.00000   0.02175   0.02185   3.12637
   D16        0.03238  -0.00035   0.00000  -0.01448  -0.01461   0.01777
   D17       -0.00864   0.00095   0.00000   0.03322   0.03311   0.02447
   D18        3.13810   0.00017   0.00000   0.00661   0.00657  -3.13851
   D19        1.55693  -0.00066   0.00000  -0.01511  -0.01510   1.54184
   D20       -2.61958   0.00084   0.00000   0.00479   0.00476  -2.61482
   D21       -0.55365  -0.00057   0.00000  -0.01238  -0.01238  -0.56603
   D22       -1.54045  -0.00058   0.00000  -0.01424  -0.01421  -1.55467
   D23        0.56622   0.00092   0.00000   0.00566   0.00564   0.57186
   D24        2.63215  -0.00050   0.00000  -0.01151  -0.01150   2.62065
   D25        0.02446  -0.00087   0.00000  -0.03055  -0.03050  -0.00604
   D26        3.09924   0.00016   0.00000   0.00496   0.00487   3.10412
   D27       -0.64034   0.00096   0.00000   0.05649   0.05668  -0.58366
   D28       -3.13519   0.00381   0.00000   0.12649   0.12612  -3.00907
   D29        2.56692  -0.00006   0.00000   0.02150   0.02187   2.58878
   D30        0.07206   0.00280   0.00000   0.09150   0.09131   0.16337
   D31        1.50919   0.00081   0.00000   0.01299   0.01307   1.52226
   D32       -2.68261  -0.00133   0.00000  -0.01373  -0.01378  -2.69639
   D33       -0.59451   0.00047   0.00000   0.00892   0.00885  -0.58566
   D34       -1.60724   0.00096   0.00000   0.01674   0.01685  -1.59039
   D35        0.48414  -0.00119   0.00000  -0.00998  -0.01000   0.47414
   D36        2.57225   0.00062   0.00000   0.01267   0.01263   2.58487
   D37       -3.12708   0.00064   0.00000   0.02801   0.02800  -3.09908
   D38       -0.00524   0.00048   0.00000   0.02050   0.02046   0.01522
   D39       -0.01086   0.00071   0.00000   0.02508   0.02512   0.01426
   D40        3.11098   0.00055   0.00000   0.01757   0.01758   3.12856
   D41       -3.10574   0.00015   0.00000   0.00290   0.00291  -3.10283
   D42        0.05552   0.00029   0.00000   0.01028   0.01027   0.06579
   D43        1.04712   0.00031   0.00000  -0.00177  -0.00172   1.04540
   D44       -2.07481   0.00046   0.00000   0.00560   0.00564  -2.06917
   D45       -0.97316  -0.00060   0.00000  -0.00754  -0.00758  -0.98073
   D46        2.18810  -0.00046   0.00000  -0.00017  -0.00022   2.18788
         Item               Value     Threshold  Converged?
 Maximum Force            0.019291     0.000450     NO 
 RMS     Force            0.003906     0.000300     NO 
 Maximum Displacement     0.226808     0.001800     NO 
 RMS     Displacement     0.041468     0.001200     NO 
 Predicted change in Energy=-2.774589D-03
 GradGradGradGradGradGradGradGradGradGradGradGradGradGradGradGradGradGrad

                          Input orientation:                          
 ---------------------------------------------------------------------
 Center     Atomic      Atomic             Coordinates (Angstroms)
 Number     Number       Type             X           Y           Z
 ---------------------------------------------------------------------
      1          6           0       -0.849076   -2.705141    3.155880
      2          6           0       -0.389038   -1.888991    5.358994
      3          6           0       -2.045755   -3.210141    3.656070
      4          6           0        0.008701   -2.025555    4.032632
      5          6           0       -1.611759   -2.453846    5.773155
      6          6           0        2.085822    0.708842    2.552574
      7          6           0        1.714416    2.135255    2.164560
      8          6           0        1.299191   -1.407968    3.546539
      9          7           0       -2.432010   -3.110871    4.935036
     10          7           0       -2.053267   -2.324853    7.076138
     11          7           0        1.072953   -0.041383    3.082110
     12          8           0        3.217244    0.252986    2.436103
     13          1           0       -0.589768   -2.836170    2.109258
     14          1           0        0.238961   -1.352817    6.066888
     15          1           0       -2.736043   -3.745738    3.007160
     16          1           0        1.830800    2.799342    3.028640
     17          1           0        2.392600    2.475775    1.380368
     18          1           0        0.683195    2.220689    1.803644
     19          1           0        2.052698   -1.408856    4.345259
     20          1           0        1.720518   -1.999767    2.724691
     21          1           0       -1.361216   -2.306077    7.810683
     22          1           0       -2.878156   -2.870709    7.284705
     23          1           0        0.151012    0.358001    3.179261
 ---------------------------------------------------------------------
                    Distance matrix (angstroms):
                    1          2          3          4          5
     1  C    0.000000
     2  C    2.394044   0.000000
     3  C    1.391853   2.718473   0.000000
     4  C    1.402253   1.391431   2.401214   0.000000
     5  C    2.737693   1.409126   2.289625   2.416349   0.000000
     6  C    4.542344   4.555180   5.800522   3.739242   5.834967
     7  C    5.566295   5.551890   6.703488   4.869445   6.719021
     8  C    2.539749   2.523191   3.801117   1.510982   3.811208
     9  N    2.415719   2.417947   1.339702   2.819453   1.344224
    10  N    4.118631   2.430683   3.532798   3.688390   1.381787
    11  N    3.285612   3.276473   4.482945   2.443985   4.502153
    12  O    5.079720   5.112400   6.417221   4.246812   6.463910
    13  H    1.086198   3.390903   2.156938   2.171320   3.822928
    14  H    3.389185   1.087649   3.805473   2.154947   2.173409
    15  H    2.160001   3.806188   1.088323   3.397682   3.253265
    16  H    6.123501   5.686712   7.178804   5.254301   6.854163
    17  H    6.364181   6.528259   7.563561   5.742774   7.722217
    18  H    5.332935   5.538923   6.353941   4.842925   6.547909
    19  H    3.393416   2.687055   4.529561   2.157772   4.069291
    20  H    2.699313   3.376692   4.064146   2.154459   4.539095
    21  H    4.699866   2.670182   4.306592   4.028528   2.058186
    22  H    4.603453   3.296641   3.738328   4.429922   2.015520
    23  H    3.222354   3.176769   4.217199   2.535712   4.212141
                    6          7          8          9         10
     6  C    0.000000
     7  C    1.524188   0.000000
     8  C    2.467315   3.825795   0.000000
     9  N    6.377864   7.238110   4.330089   0.000000
    10  N    6.840906   7.629653   4.953557   2.312053   0.000000
    11  N    1.367168   2.447678   1.460970   5.013967   5.562351
    12  O    1.225352   2.423873   2.769615   7.033796   7.480206
    13  H    4.463454   5.479726   2.770146   3.384426   5.203189
    14  H    4.473448   5.437994   2.734829   3.392039   2.686587
    15  H    6.580298   7.423116   4.694595   2.052364   4.363678
    16  H    2.159134   1.095988   4.272269   7.532365   7.597736
    17  H    2.142483   1.091259   4.579444   8.192872   8.674882
    18  H    2.194069   1.095891   4.072381   6.923558   7.479931
    19  H    2.774791   4.174998   1.098056   4.832939   5.015546
    20  H    2.738546   4.172791   1.096893   4.833598   5.769075
    21  H    6.972770   7.814323   5.105614   3.172324   1.009378
    22  H    7.736105   8.506896   5.793421   2.403678   1.010891
    23  H    2.063811   2.575361   2.138190   4.667743   5.219406
                   11         12         13         14         15
    11  N    0.000000
    12  O    2.258752   0.000000
    13  H    3.394395   4.913558   0.000000
    14  H    3.365160   4.963001   4.306967   0.000000
    15  H    5.313786   7.194271   2.498007   4.892715   0.000000
    16  H    2.940563   2.959266   6.201888   5.385659   7.980889
    17  H    3.312625   2.595266   6.135354   6.423376   8.225367
    18  H    2.627424   3.270055   5.223567   5.580550   6.981253
    19  H    2.103670   2.786174   3.744270   2.501358   5.493958
    20  H    2.093407   2.719994   2.532933   3.712659   4.794700
    21  H    5.780435   7.509808   5.777749   2.551488   5.199674
    22  H    6.424808   8.391682   5.658902   3.674710   4.368440
    23  H    1.009417   3.156753   3.449115   3.357533   5.020496
                   16         17         18         19         20
    16  H    0.000000
    17  H    1.771191   0.000000
    18  H    1.775515   1.779410   0.000000
    19  H    4.414935   4.898620   4.637774   0.000000
    20  H    4.809988   4.721162   4.442591   1.756633   0.000000
    21  H    7.689097   8.849080   7.794598   4.946613   5.954681
    22  H    8.511042   9.551281   8.285384   5.923739   6.534529
    23  H    2.967241   3.570113   2.375952   2.845654   2.868632
                   21         22         23
    21  H    0.000000
    22  H    1.701931   0.000000
    23  H    5.552857   6.037806   0.000000
 Stoichiometry    C8H11N3O
 Framework group  C1[X(C8H11N3O)]
 Deg. of freedom    63
 Full point group                 C1      NOp   1
 Largest Abelian subgroup         C1      NOp   1
 Largest concise Abelian subgroup C1      NOp   1
                         Standard orientation:                         
 ---------------------------------------------------------------------
 Center     Atomic      Atomic             Coordinates (Angstroms)
 Number     Number       Type             X           Y           Z
 ---------------------------------------------------------------------
      1          6           0       -1.043007    1.581906   -0.011173
      2          6           0       -1.334336   -0.758909   -0.420026
      3          6           0       -2.358542    1.606847    0.442702
      4          6           0       -0.512924    0.363509   -0.459315
      5          6           0       -2.660133   -0.626574    0.038652
      6          6           0        3.155394   -0.150837    0.051396
      7          6           0        3.937824   -0.526222    1.304407
      8          6           0        0.922652    0.253448   -0.917654
      9          7           0       -3.171361    0.542081    0.462715
     10          7           0       -3.503071   -1.719010    0.111962
     11          7           0        1.801371   -0.047772    0.209977
     12          8           0        3.679679    0.021210   -1.042685
     13          1           0       -0.443892    2.487923   -0.015775
     14          1           0       -0.955621   -1.726528   -0.741378
     15          1           0       -2.805972    2.534018    0.795700
     16          1           0        3.983456   -1.616803    1.403104
     17          1           0        4.957962   -0.150538    1.209403
     18          1           0        3.493103   -0.118068    2.219071
     19          1           0        1.024260   -0.524530   -1.685868
     20          1           0        1.248117    1.191425   -1.383966
     21          1           0       -3.398744   -2.444706   -0.581814
     22          1           0       -4.459676   -1.483373    0.338421
     23          1           0        1.389428   -0.204609    1.118067
 ---------------------------------------------------------------------
 Rotational constants (GHZ):      2.2256917      0.4033944      0.3797857
 Standard basis: 6-31G(d) (6D, 7F)
 There are   202 symmetry adapted basis functions of A   symmetry.
 Integral buffers will be    131072 words long.
 Raffenetti 2 integral format.
 Two-electron integral symmetry is turned on.
   202 basis functions,   380 primitive gaussians,   202 cartesian basis functions
    44 alpha electrons       44 beta electrons
       nuclear repulsion energy       656.2751727178 Hartrees.
 NAtoms=   23 NActive=   23 NUniq=   23 SFac= 1.00D+00 NAtFMM=   60 NAOKFM=F Big=F
 One-electron integrals computed using PRISM.
 NBasis=   202 RedAO= T  NBF=   202
 NBsUse=   202 1.00D-06 NBFU=   202
 Initial guess read from the read-write file.
 B after Tr=     0.000000    0.000000    0.000000
         Rot=    1.000000    0.000000    0.000000    0.000000 Ang=   0.00 deg.
 Initial guess orbital symmetries:
       Occupied  (A) (A) (A) (A) (A) (A) (A) (A) (A) (A) (A) (A)
                 (A) (A) (A) (A) (A) (A) (A) (A) (A) (A) (A) (A)
                 (A) (A) (A) (A) (A) (A) (A) (A) (A) (A) (A) (A)
                 (A) (A) (A) (A) (A) (A) (A) (A)
       Virtual   (A) (A) (A) (A) (A) (A) (A) (A) (A) (A) (A) (A)
                 (A) (A) (A) (A) (A) (A) (A) (A) (A) (A) (A) (A)
                 (A) (A) (A) (A) (A) (A) (A) (A) (A) (A) (A) (A)
                 (A) (A) (A) (A) (A) (A) (A) (A) (A) (A) (A) (A)
                 (A) (A) (A) (A) (A) (A) (A) (A) (A) (A) (A) (A)
                 (A) (A) (A) (A) (A) (A) (A) (A) (A) (A) (A) (A)
                 (A) (A) (A) (A) (A) (A) (A) (A) (A) (A) (A) (A)
                 (A) (A) (A) (A) (A) (A) (A) (A) (A) (A) (A) (A)
                 (A) (A) (A) (A) (A) (A) (A) (A) (A) (A) (A) (A)
                 (A) (A) (A) (A) (A) (A) (A) (A) (A) (A) (A) (A)
                 (A) (A) (A) (A) (A) (A) (A) (A) (A) (A) (A) (A)
                 (A) (A) (A) (A) (A) (A) (A) (A) (A) (A) (A) (A)
                 (A) (A) (A) (A) (A) (A) (A) (A) (A) (A) (A) (A)
                 (A) (A)
 Harris functional with IExCor=  402 diagonalized for initial guess.
 ExpMin= 1.61D-01 ExpMax= 5.48D+03 ExpMxC= 8.25D+02 IAcc=3 IRadAn=         5 AccDes= 0.00D+00
 HarFok:  IExCor=  402 AccDes= 0.00D+00 IRadAn=         5 IDoV= 1
 ScaDFX=  1.000000  1.000000  1.000000  1.000000
 FoFCou: FMM=F IPFlag=           0 FMFlag=      100000 FMFlg1=           0
         NFxFlg=           0 DoJE=T BraDBF=F KetDBF=T FulRan=T
         Omega=  0.000000  0.000000  1.000000  0.000000  0.000000 ICntrl=     500 IOpCl=  0
         NMat0=    1 NMatS0=    1 NMatT0=    0 NMatD0=    1 NMtDS0=    0 NMtDT0=    0
         I1Cent=           4 NGrid=           0.
 Petite list used in FoFCou.
 Requested convergence on RMS density matrix=1.00D-08 within 128 cycles.
 Requested convergence on MAX density matrix=1.00D-06.
 Requested convergence on             energy=1.00D-06.
 No special actions if energy rises.
 Integral accuracy reduced to 1.0D-05 until final iterations.
 Initial convergence to 1.0D-05 achieved.  Increase integral accuracy.
 SCF Done:  E(RB3LYP) =  -550.973650133     A.U. after   12 cycles
             Convg  =    0.7674D-08             -V/T =  2.0095
 Calling FoFJK, ICntrl=      2127 FMM=F ISym2X=0 I1Cent= 0 IOpClX= 0 NMat=1 NMatS=1 NMatT=0.
 ***** Axes restored to original set *****
 -------------------------------------------------------------------
 Center     Atomic                   Forces (Hartrees/Bohr)
 Number     Number              X              Y              Z
 -------------------------------------------------------------------
      1        6          -0.001084961   -0.000390825   -0.002468635
      2        6           0.002209637   -0.000042321   -0.000393017
      3        6          -0.000110578   -0.000605269    0.001926923
      4        6          -0.002082925    0.000858595    0.001468805
      5        6          -0.000988049   -0.002317085    0.000411734
      6        6           0.001134754   -0.003351204    0.001549141
      7        6          -0.000698193   -0.000828942   -0.000934310
      8        6           0.001588806   -0.001966883   -0.000196067
      9        7           0.001990818    0.002536538   -0.001081308
     10        7          -0.001499513    0.002521245    0.000067389
     11        7          -0.001775762    0.003068964   -0.000945182
     12        8           0.000910844    0.002020821   -0.001056766
     13        1           0.000130229   -0.000049194    0.000222679
     14        1          -0.000539152   -0.000353863    0.000490856
     15        1           0.000309160    0.000091260   -0.001200243
     16        1           0.000183629    0.000003471    0.000271668
     17        1           0.000727526   -0.000328549    0.000146384
     18        1          -0.000060806   -0.000180906    0.000739554
     19        1          -0.000524951    0.000983374   -0.000340296
     20        1          -0.000074800    0.000713782   -0.000012283
     21        1           0.000756127    0.000628971    0.000374219
     22        1           0.000370415   -0.001996540    0.000344155
     23        1          -0.000872253   -0.001015440    0.000614601
 -------------------------------------------------------------------
 Cartesian Forces:  Max     0.003351204 RMS     0.001241687

 GradGradGradGradGradGradGradGradGradGradGradGradGradGradGradGradGradGrad
 Berny optimization.
 Using GEDIIS/GDIIS optimizer.
 Internal  Forces:  Max     0.003724840 RMS     0.000767852
 Search for a local minimum.
 Step number   2 out of a maximum of  116
 All quantities printed in internal units (Hartrees-Bohrs-Radians)
 Mixed Optimization -- En-DIIS/RFO-DIIS
 Update second derivatives using D2CorX and points    1    2
 DE= -2.65D-03 DEPred=-2.77D-03 R= 9.54D-01
 SS=  1.41D+00  RLast= 2.27D-01 DXNew= 5.0454D-01 6.7996D-01
 Trust test= 9.54D-01 RLast= 2.27D-01 DXMaxT set to 5.05D-01
 ITU=  1  0
 Use linear search instead of GDIIS.
     Eigenvalues ---    0.00710   0.00734   0.01102   0.01243   0.01497
     Eigenvalues ---    0.01565   0.01837   0.02077   0.02146   0.02179
     Eigenvalues ---    0.02220   0.02235   0.02294   0.02305   0.02357
     Eigenvalues ---    0.03813   0.05287   0.06656   0.07068   0.07472
     Eigenvalues ---    0.09925   0.13168   0.15620   0.15997   0.15999
     Eigenvalues ---    0.16000   0.16000   0.16000   0.16000   0.16000
     Eigenvalues ---    0.16365   0.21691   0.21960   0.22307   0.23456
     Eigenvalues ---    0.24596   0.24968   0.24974   0.24993   0.27230
     Eigenvalues ---    0.32081   0.32951   0.34066   0.34126   0.34399
     Eigenvalues ---    0.34432   0.34474   0.35070   0.35180   0.35246
     Eigenvalues ---    0.39443   0.43044   0.44106   0.44938   0.45044
     Eigenvalues ---    0.45343   0.46239   0.48899   0.49742   0.50761
     Eigenvalues ---    0.52526   0.55029   0.91379
 RFO step:  Lambda=-5.75334559D-04 EMin= 7.09597005D-03
 Quartic linear search produced a step of  0.00559.
 Iteration  1 RMS(Cart)=  0.01704098 RMS(Int)=  0.00043147
 Iteration  2 RMS(Cart)=  0.00044277 RMS(Int)=  0.00004419
 Iteration  3 RMS(Cart)=  0.00000044 RMS(Int)=  0.00004419
 Variable       Old X    -DE/DX   Delta X   Delta X   Delta X     New X
                                 (Linear)    (Quad)   (Total)
    R1        2.63022  -0.00097   0.00009  -0.00055  -0.00046   2.62976
    R2        2.64987   0.00088   0.00009   0.00337   0.00345   2.65333
    R3        2.05262  -0.00018   0.00000  -0.00052  -0.00052   2.05210
    R4        2.62942  -0.00004  -0.00009  -0.00133  -0.00142   2.62800
    R5        2.66286   0.00022   0.00023   0.00412   0.00435   2.66721
    R6        2.05536  -0.00017   0.00001  -0.00035  -0.00034   2.05502
    R7        2.53167  -0.00034  -0.00016  -0.00329  -0.00345   2.52822
    R8        2.05663   0.00047   0.00001   0.00145   0.00146   2.05809
    R9        2.85534   0.00015   0.00009   0.00193   0.00202   2.85736
   R10        2.54021  -0.00079  -0.00001  -0.00165  -0.00166   2.53855
   R11        2.61120   0.00097   0.00006   0.00292   0.00298   2.61418
   R12        2.88030  -0.00134   0.00021  -0.00084  -0.00063   2.87967
   R13        2.58357  -0.00011  -0.00004  -0.00089  -0.00093   2.58265
   R14        2.31558   0.00019  -0.00004  -0.00047  -0.00052   2.31506
   R15        2.07112   0.00024   0.00003   0.00116   0.00119   2.07231
   R16        2.06218   0.00024  -0.00002   0.00034   0.00032   2.06250
   R17        2.07093  -0.00020   0.00002  -0.00021  -0.00019   2.07074
   R18        2.76083  -0.00063   0.00017   0.00116   0.00134   2.76217
   R19        2.07502  -0.00061   0.00002  -0.00153  -0.00151   2.07351
   R20        2.07283  -0.00040   0.00000  -0.00113  -0.00113   2.07170
   R21        1.90745   0.00080  -0.00006   0.00077   0.00070   1.90815
   R22        1.91031   0.00085  -0.00005   0.00105   0.00100   1.91131
   R23        1.90752   0.00045  -0.00007  -0.00015  -0.00023   1.90730
    A1        2.06813  -0.00109   0.00002  -0.00427  -0.00426   2.06386
    A2        2.10338   0.00067   0.00004   0.00364   0.00367   2.10705
    A3        2.11168   0.00042  -0.00005   0.00064   0.00057   2.11225
    A4        2.08158  -0.00054  -0.00003  -0.00239  -0.00242   2.07916
    A5        2.09873   0.00107  -0.00001   0.00576   0.00574   2.10447
    A6        2.10288  -0.00053   0.00004  -0.00336  -0.00332   2.09956
    A7        2.17011  -0.00024   0.00006  -0.00019  -0.00015   2.16997
    A8        2.10553  -0.00104   0.00000  -0.00656  -0.00657   2.09896
    A9        2.00734   0.00129  -0.00006   0.00694   0.00686   2.01421
   A10        2.05863   0.00121  -0.00004   0.00491   0.00486   2.06350
   A11        2.11693  -0.00096   0.00004  -0.00344  -0.00341   2.11353
   A12        2.10677  -0.00024   0.00000  -0.00121  -0.00121   2.10556
   A13        2.14380  -0.00105   0.00004  -0.00364  -0.00362   2.14018
   A14        2.11412  -0.00018   0.00003  -0.00033  -0.00032   2.11380
   A15        2.02483   0.00122  -0.00007   0.00363   0.00353   2.02836
   A16        2.01708  -0.00178   0.00015  -0.00462  -0.00449   2.01259
   A17        2.15191  -0.00194   0.00007  -0.00660  -0.00656   2.14535
   A18        2.11383   0.00372  -0.00022   0.01155   0.01131   2.12513
   A19        1.91822  -0.00028   0.00007  -0.00187  -0.00181   1.91641
   A20        1.90025  -0.00073  -0.00005  -0.00492  -0.00498   1.89527
   A21        1.96719  -0.00011   0.00017   0.00282   0.00299   1.97018
   A22        1.88755   0.00021  -0.00013  -0.00233  -0.00248   1.88507
   A23        1.88845   0.00007  -0.00011  -0.00216  -0.00227   1.88618
   A24        1.90054   0.00086   0.00004   0.00840   0.00844   1.90898
   A25        1.93086  -0.00097  -0.00004  -0.00644  -0.00649   1.92438
   A26        1.93023   0.00062  -0.00002   0.00338   0.00333   1.93356
   A27        1.92685   0.00068  -0.00004   0.00524   0.00518   1.93203
   A28        1.91586  -0.00035   0.00012  -0.00419  -0.00407   1.91179
   A29        1.90283  -0.00013   0.00003  -0.00219  -0.00214   1.90069
   A30        1.85561   0.00019  -0.00004   0.00452   0.00446   1.86007
   A31        2.04375   0.00172  -0.00005   0.00583   0.00578   2.04953
   A32        2.05882  -0.00038  -0.00003  -0.00715  -0.00738   2.05145
   A33        1.98764  -0.00061  -0.00014  -0.01049  -0.01083   1.97680
   A34        2.00355   0.00009  -0.00008  -0.00658  -0.00693   1.99661
   A35        2.11963  -0.00148  -0.00005  -0.00748  -0.00753   2.11211
   A36        2.09072   0.00208   0.00005   0.01252   0.01257   2.10329
   A37        2.07252  -0.00060   0.00000  -0.00507  -0.00507   2.06745
    D1       -0.01952   0.00025  -0.00012   0.00799   0.00786  -0.01166
    D2       -3.13858  -0.00008   0.00003  -0.00314  -0.00309   3.14152
    D3        3.12278   0.00009  -0.00016   0.00079   0.00062   3.12340
    D4        0.00372  -0.00024   0.00000  -0.01034  -0.01033  -0.00661
    D5       -0.00430  -0.00005   0.00004  -0.00034  -0.00029  -0.00459
    D6       -3.10201  -0.00015   0.00004  -0.00720  -0.00716  -3.10917
    D7        3.13658   0.00011   0.00008   0.00690   0.00698  -3.13963
    D8        0.03887   0.00001   0.00008   0.00003   0.00011   0.03898
    D9        0.02094  -0.00008  -0.00003  -0.00513  -0.00518   0.01576
   D10        3.11891   0.00001  -0.00003   0.00163   0.00160   3.12051
   D11       -3.12192  -0.00002  -0.00006  -0.00268  -0.00274  -3.12466
   D12       -0.02395   0.00007  -0.00006   0.00409   0.00404  -0.01991
   D13       -0.01649   0.00005   0.00010   0.00390   0.00401  -0.01248
   D14       -3.12509   0.00040  -0.00011   0.01688   0.01676  -3.10833
   D15        3.12637  -0.00001   0.00012   0.00143   0.00157   3.12794
   D16        0.01777   0.00034  -0.00008   0.01441   0.01432   0.03210
   D17        0.02447  -0.00026   0.00019  -0.00926  -0.00910   0.01538
   D18       -3.13851   0.00002   0.00004   0.00115   0.00121  -3.13729
   D19        1.54184   0.00007  -0.00008  -0.00944  -0.00953   1.53230
   D20       -2.61482  -0.00061   0.00003  -0.01680  -0.01680  -2.63162
   D21       -0.56603   0.00042  -0.00007  -0.00593  -0.00599  -0.57202
   D22       -1.55467  -0.00007  -0.00008  -0.01665  -0.01672  -1.57139
   D23        0.57186  -0.00075   0.00003  -0.02401  -0.02399   0.54788
   D24        2.62065   0.00028  -0.00006  -0.01313  -0.01317   2.60748
   D25       -0.00604   0.00013  -0.00017   0.00321   0.00304  -0.00300
   D26        3.10412  -0.00023   0.00003  -0.00921  -0.00918   3.09493
   D27       -0.58366   0.00033   0.00032   0.03530   0.03568  -0.54798
   D28       -3.00907   0.00145   0.00071   0.06956   0.07017  -2.93890
   D29        2.58878   0.00070   0.00012   0.04756   0.04777   2.63656
   D30        0.16337   0.00182   0.00051   0.08182   0.08227   0.24564
   D31        1.52226   0.00027   0.00007   0.02238   0.02242   1.54468
   D32       -2.69639  -0.00007  -0.00008   0.01553   0.01543  -2.68096
   D33       -0.58566   0.00044   0.00005   0.02457   0.02459  -0.56107
   D34       -1.59039   0.00005   0.00009   0.00910   0.00922  -1.58118
   D35        0.47414  -0.00028  -0.00006   0.00225   0.00223   0.47637
   D36        2.58487   0.00023   0.00007   0.01128   0.01138   2.59626
   D37       -3.09908   0.00001   0.00016  -0.00150  -0.00138  -3.10046
   D38        0.01522  -0.00002   0.00011  -0.00265  -0.00259   0.01263
   D39        0.01426   0.00012   0.00014   0.01115   0.01134   0.02560
   D40        3.12856   0.00009   0.00010   0.00999   0.01013   3.13869
   D41       -3.10283  -0.00004   0.00002   0.00145   0.00147  -3.10135
   D42        0.06579  -0.00005   0.00006   0.00232   0.00238   0.06817
   D43        1.04540   0.00006  -0.00001   0.00429   0.00427   1.04967
   D44       -2.06917   0.00005   0.00003   0.00516   0.00518  -2.06399
   D45       -0.98073   0.00010  -0.00004   0.00244   0.00241  -0.97832
   D46        2.18788   0.00009   0.00000   0.00332   0.00332   2.19120
         Item               Value     Threshold  Converged?
 Maximum Force            0.003725     0.000450     NO 
 RMS     Force            0.000768     0.000300     NO 
 Maximum Displacement     0.094678     0.001800     NO 
 RMS     Displacement     0.017047     0.001200     NO 
 Predicted change in Energy=-2.928885D-04
 GradGradGradGradGradGradGradGradGradGradGradGradGradGradGradGradGradGrad

                          Input orientation:                          
 ---------------------------------------------------------------------
 Center     Atomic      Atomic             Coordinates (Angstroms)
 Number     Number       Type             X           Y           Z
 ---------------------------------------------------------------------
      1          6           0       -0.851145   -2.693219    3.151189
      2          6           0       -0.387144   -1.893779    5.364386
      3          6           0       -2.046138   -3.202290    3.650603
      4          6           0        0.006188   -2.020452    4.036517
      5          6           0       -1.614182   -2.458142    5.774268
      6          6           0        2.085589    0.703754    2.555897
      7          6           0        1.712399    2.127043    2.159518
      8          6           0        1.300777   -1.405790    3.554302
      9          7           0       -2.432121   -3.105658    4.927939
     10          7           0       -2.063854   -2.323060    7.075514
     11          7           0        1.069047   -0.041168    3.084612
     12          8           0        3.217717    0.252814    2.430369
     13          1           0       -0.588261   -2.819788    2.105196
     14          1           0        0.240096   -1.366374    6.079233
     15          1           0       -2.735482   -3.729779    2.992811
     16          1           0        1.846630    2.798535    3.016054
     17          1           0        2.385293    2.454794    1.365161
     18          1           0        0.675262    2.215967    1.817178
     19          1           0        2.049489   -1.395633    4.356361
     20          1           0        1.728181   -1.995611    2.734972
     21          1           0       -1.369155   -2.269595    7.806357
     22          1           0       -2.850980   -2.920811    7.290224
     23          1           0        0.143815    0.350244    3.181684
 ---------------------------------------------------------------------
                    Distance matrix (angstroms):
                    1          2          3          4          5
     1  C    0.000000
     2  C    2.398467   0.000000
     3  C    1.391609   2.720573   0.000000
     4  C    1.404081   1.390680   2.399524   0.000000
     5  C    2.741902   1.411429   2.291352   2.415978   0.000000
     6  C    4.529703   4.555129   5.790227   3.733288   5.834707
     7  C    5.548882   5.553941   6.689672   4.861686   6.719856
     8  C    2.539831   2.522620   3.799806   1.512051   3.812174
     9  N    2.413800   2.416830   1.337875   2.813833   1.343344
    10  N    4.124077   2.433845   3.536012   3.689465   1.383364
    11  N    3.274896   3.278724   4.474083   2.439950   4.502858
    12  O    5.074872   5.119701   6.413648   4.249866   6.471336
    13  H    1.085924   3.394151   2.158703   2.173088   3.826930
    14  H    3.394815   1.087470   3.807322   2.157595   2.173317
    15  H    2.156447   3.809194   1.089095   3.395273   3.257434
    16  H    6.120099   5.702825   7.180960   5.258441   6.871507
    17  H    6.337702   6.526124   7.540784   5.729233   7.718352
    18  H    5.311273   5.531854   6.334428   4.829117   6.538150
    19  H    3.398507   2.683551   4.531696   2.160504   4.069628
    20  H    2.704221   3.376208   4.066932   2.158679   4.541215
    21  H    4.703018   2.658722   4.312600   4.020613   2.055474
    22  H    4.602472   3.291525   3.738160   4.422744   2.010436
    23  H    3.202115   3.175176   4.199556   2.523861   4.207026
                    6          7          8          9         10
     6  C    0.000000
     7  C    1.523856   0.000000
     8  C    2.462300   3.820440   0.000000
     9  N    6.367724   7.226503   4.325616   0.000000
    10  N    6.841522   7.630892   4.955911   2.315202   0.000000
    11  N    1.366677   2.443530   1.461678   5.004711   5.563219
    12  O    1.225078   2.419106   2.772878   7.031206   7.490494
    13  H    4.446117   5.455925   2.769073   3.383699   5.208472
    14  H    4.483879   5.453054   2.738954   3.389886   2.686263
    15  H    6.564285   7.401377   4.691224   2.055791   4.370173
    16  H    2.157998   1.096619   4.273642   7.538070   7.615893
    17  H    2.138648   1.091426   4.568657   8.174319   8.673577
    18  H    2.195796   1.095790   4.065218   6.903069   7.466969
    19  H    2.765936   4.165212   1.097256   4.830705   5.017321
    20  H    2.728805   4.162652   1.096296   4.832123   5.772959
    21  H    6.952941   7.791866   5.094572   3.180281   1.009750
    22  H    7.740868   8.522288   5.787010   2.406242   1.011422
    23  H    2.070524   2.581142   2.135664   4.650603   5.213661
                   11         12         13         14         15
    11  N    0.000000
    12  O    2.265224   0.000000
    13  H    3.380334   4.902253   0.000000
    14  H    3.378030   4.980181   4.311793   0.000000
    15  H    5.299879   7.184564   2.495296   4.895482   0.000000
    16  H    2.945037   2.950187   6.190631   5.413915   7.975911
    17  H    3.304367   2.583857   6.100073   6.436278   8.192711
    18  H    2.618418   3.270176   5.199835   5.584591   6.954652
    19  H    2.100759   2.791340   3.748825   2.498609   5.495767
    20  H    2.092021   2.714206   2.538068   3.714083   4.795634
    21  H    5.762429   7.503545   5.780635   2.527539   5.212409
    22  H    6.430095   8.397569   5.658146   3.665723   4.374417
    23  H    1.009297   3.165887   3.426932   3.369249   4.997260
                   16         17         18         19         20
    16  H    0.000000
    17  H    1.770244   0.000000
    18  H    1.774483   1.784814   0.000000
    19  H    4.407791   4.887314   4.623809   0.000000
    20  H    4.803839   4.702583   4.437158   1.758441   0.000000
    21  H    7.679467   8.826366   7.756944   4.934917   5.948739
    22  H    8.546752   9.561488   8.293076   5.911710   6.524954
    23  H    2.986828   3.571150   2.371759   2.838934   2.865798
                   21         22         23
    21  H    0.000000
    22  H    1.698905   0.000000
    23  H    5.526321   6.045551   0.000000
 Stoichiometry    C8H11N3O
 Framework group  C1[X(C8H11N3O)]
 Deg. of freedom    63
 Full point group                 C1      NOp   1
 Largest Abelian subgroup         C1      NOp   1
 Largest concise Abelian subgroup C1      NOp   1
                         Standard orientation:                         
 ---------------------------------------------------------------------
 Center     Atomic      Atomic             Coordinates (Angstroms)
 Number     Number       Type             X           Y           Z
 ---------------------------------------------------------------------
      1          6           0       -1.033136    1.580706   -0.017599
      2          6           0       -1.338817   -0.763634   -0.421667
      3          6           0       -2.349933    1.613667    0.431328
      4          6           0       -0.512471    0.354238   -0.460462
      5          6           0       -2.665294   -0.621759    0.039269
      6          6           0        3.150634   -0.154142    0.050078
      7          6           0        3.932660   -0.510303    1.308538
      8          6           0        0.922438    0.236163   -0.922406
      9          7           0       -3.164528    0.552728    0.458696
     10          7           0       -3.510415   -1.713040    0.131860
     11          7           0        1.797704   -0.049694    0.212801
     12          8           0        3.683766    0.012476   -1.040255
     13          1           0       -0.428381    2.482566   -0.029811
     14          1           0       -0.969906   -1.735607   -0.740674
     15          1           0       -2.786961    2.547484    0.782216
     16          1           0        3.996584   -1.600329    1.410175
     17          1           0        4.947328   -0.120588    1.209638
     18          1           0        3.476797   -0.110005    2.221066
     19          1           0        1.025549   -0.556580   -1.674003
     20          1           0        1.253227    1.165506   -1.400700
     21          1           0       -3.382511   -2.460484   -0.534895
     22          1           0       -4.475726   -1.458121    0.293614
     23          1           0        1.378057   -0.193232    1.119429
 ---------------------------------------------------------------------
 Rotational constants (GHZ):      2.2281131      0.4036722      0.3801203
 Standard basis: 6-31G(d) (6D, 7F)
 There are   202 symmetry adapted basis functions of A   symmetry.
 Integral buffers will be    131072 words long.
 Raffenetti 2 integral format.
 Two-electron integral symmetry is turned on.
   202 basis functions,   380 primitive gaussians,   202 cartesian basis functions
    44 alpha electrons       44 beta electrons
       nuclear repulsion energy       656.3877489795 Hartrees.
 NAtoms=   23 NActive=   23 NUniq=   23 SFac= 1.00D+00 NAtFMM=   60 NAOKFM=F Big=F
 One-electron integrals computed using PRISM.
 NBasis=   202 RedAO= T  NBF=   202
 NBsUse=   202 1.00D-06 NBFU=   202
 Initial guess read from the read-write file.
 B after Tr=     0.000000    0.000000    0.000000
         Rot=    1.000000    0.000000    0.000000    0.000000 Ang=   0.00 deg.
 Initial guess orbital symmetries:
       Occupied  (A) (A) (A) (A) (A) (A) (A) (A) (A) (A) (A) (A)
                 (A) (A) (A) (A) (A) (A) (A) (A) (A) (A) (A) (A)
                 (A) (A) (A) (A) (A) (A) (A) (A) (A) (A) (A) (A)
                 (A) (A) (A) (A) (A) (A) (A) (A)
       Virtual   (A) (A) (A) (A) (A) (A) (A) (A) (A) (A) (A) (A)
                 (A) (A) (A) (A) (A) (A) (A) (A) (A) (A) (A) (A)
                 (A) (A) (A) (A) (A) (A) (A) (A) (A) (A) (A) (A)
                 (A) (A) (A) (A) (A) (A) (A) (A) (A) (A) (A) (A)
                 (A) (A) (A) (A) (A) (A) (A) (A) (A) (A) (A) (A)
                 (A) (A) (A) (A) (A) (A) (A) (A) (A) (A) (A) (A)
                 (A) (A) (A) (A) (A) (A) (A) (A) (A) (A) (A) (A)
                 (A) (A) (A) (A) (A) (A) (A) (A) (A) (A) (A) (A)
                 (A) (A) (A) (A) (A) (A) (A) (A) (A) (A) (A) (A)
                 (A) (A) (A) (A) (A) (A) (A) (A) (A) (A) (A) (A)
                 (A) (A) (A) (A) (A) (A) (A) (A) (A) (A) (A) (A)
                 (A) (A) (A) (A) (A) (A) (A) (A) (A) (A) (A) (A)
                 (A) (A) (A) (A) (A) (A) (A) (A) (A) (A) (A) (A)
                 (A) (A)
 Harris functional with IExCor=  402 diagonalized for initial guess.
 ExpMin= 1.61D-01 ExpMax= 5.48D+03 ExpMxC= 8.25D+02 IAcc=3 IRadAn=         5 AccDes= 0.00D+00
 HarFok:  IExCor=  402 AccDes= 0.00D+00 IRadAn=         5 IDoV= 1
 ScaDFX=  1.000000  1.000000  1.000000  1.000000
 FoFCou: FMM=F IPFlag=           0 FMFlag=      100000 FMFlg1=           0
         NFxFlg=           0 DoJE=T BraDBF=F KetDBF=T FulRan=T
         Omega=  0.000000  0.000000  1.000000  0.000000  0.000000 ICntrl=     500 IOpCl=  0
         NMat0=    1 NMatS0=    1 NMatT0=    0 NMatD0=    1 NMtDS0=    0 NMtDT0=    0
         I1Cent=           4 NGrid=           0.
 Petite list used in FoFCou.
 Requested convergence on RMS density matrix=1.00D-08 within 128 cycles.
 Requested convergence on MAX density matrix=1.00D-06.
 Requested convergence on             energy=1.00D-06.
 No special actions if energy rises.
 Integral accuracy reduced to 1.0D-05 until final iterations.
 Initial convergence to 1.0D-05 achieved.  Increase integral accuracy.
 SCF Done:  E(RB3LYP) =  -550.974004458     A.U. after   11 cycles
             Convg  =    0.7026D-08             -V/T =  2.0095
 Calling FoFJK, ICntrl=      2127 FMM=F ISym2X=0 I1Cent= 0 IOpClX= 0 NMat=1 NMatS=1 NMatT=0.
 ***** Axes restored to original set *****
 -------------------------------------------------------------------
 Center     Atomic                   Forces (Hartrees/Bohr)
 Number     Number              X              Y              Z
 -------------------------------------------------------------------
      1        6          -0.000156373    0.000257516   -0.000109646
      2        6          -0.000377344   -0.000804880    0.000245555
      3        6           0.000469127   -0.000094653   -0.000485028
      4        6          -0.000312147   -0.000258267    0.000034047
      5        6           0.000716429    0.000393030   -0.000950934
      6        6          -0.000959456   -0.000300263   -0.001099907
      7        6           0.000024406   -0.000013286    0.000226599
      8        6          -0.000118602   -0.000791611    0.000054070
      9        7           0.000532091    0.001133149    0.001329209
     10        7          -0.001388566    0.000275865   -0.001131295
     11        7           0.000696376    0.000427436   -0.000237333
     12        8           0.000241868    0.000391316    0.000601952
     13        1           0.000017792    0.000069290    0.000117095
     14        1          -0.000002985   -0.000251899    0.000107701
     15        1           0.000152205   -0.000097341   -0.000152331
     16        1           0.000169376   -0.000109465    0.000030889
     17        1           0.000031012   -0.000027965   -0.000154572
     18        1           0.000195370   -0.000203197    0.000227114
     19        1          -0.000259944    0.000277660   -0.000023398
     20        1          -0.000049216    0.000166630    0.000062420
     21        1           0.000879138    0.000323309    0.000339664
     22        1          -0.000235715   -0.000887857    0.000748085
     23        1          -0.000264841    0.000125484    0.000220043
 -------------------------------------------------------------------
 Cartesian Forces:  Max     0.001388566 RMS     0.000497020

 GradGradGradGradGradGradGradGradGradGradGradGradGradGradGradGradGradGrad
 Berny optimization.
 Using GEDIIS/GDIIS optimizer.
 Internal  Forces:  Max     0.001183316 RMS     0.000295342
 Search for a local minimum.
 Step number   3 out of a maximum of  116
 All quantities printed in internal units (Hartrees-Bohrs-Radians)
 Mixed Optimization -- En-DIIS/RFO-DIIS
 Swaping is turned off.
 Update second derivatives using D2CorX and points    1    2    3
 DE= -3.54D-04 DEPred=-2.93D-04 R= 1.21D+00
 SS=  1.41D+00  RLast= 1.44D-01 DXNew= 8.4853D-01 4.3273D-01
 Trust test= 1.21D+00 RLast= 1.44D-01 DXMaxT set to 5.05D-01
 ITU=  1  1  0
     Eigenvalues ---    0.00632   0.00723   0.01088   0.01169   0.01501
     Eigenvalues ---    0.01538   0.01572   0.02094   0.02153   0.02180
     Eigenvalues ---    0.02234   0.02255   0.02291   0.02352   0.02357
     Eigenvalues ---    0.03962   0.05341   0.06655   0.07057   0.07548
     Eigenvalues ---    0.09852   0.13126   0.15628   0.15997   0.15999
     Eigenvalues ---    0.16000   0.16000   0.16000   0.16000   0.16236
     Eigenvalues ---    0.16619   0.21949   0.22133   0.22305   0.23403
     Eigenvalues ---    0.24538   0.24915   0.24982   0.25011   0.28247
     Eigenvalues ---    0.32136   0.32809   0.34057   0.34084   0.34397
     Eigenvalues ---    0.34424   0.34464   0.35072   0.35177   0.35242
     Eigenvalues ---    0.39551   0.43245   0.44168   0.44887   0.45038
     Eigenvalues ---    0.45137   0.47070   0.49399   0.49625   0.50769
     Eigenvalues ---    0.52664   0.55587   0.91387
 En-DIIS/RFO-DIIS IScMMF=        0 using points:     3    2
 RFO step:  Lambda=-2.92569506D-05.
 DidBck=F Rises=F RFO-DIIS coefs:    1.30362   -0.30362
 Iteration  1 RMS(Cart)=  0.01712972 RMS(Int)=  0.00025422
 Iteration  2 RMS(Cart)=  0.00027403 RMS(Int)=  0.00004434
 Iteration  3 RMS(Cart)=  0.00000007 RMS(Int)=  0.00004434
 Variable       Old X    -DE/DX   Delta X   Delta X   Delta X     New X
                                  (DIIS)     (GDIIS)  (Total)
    R1        2.62976  -0.00054  -0.00014  -0.00058  -0.00072   2.62904
    R2        2.65333  -0.00049   0.00105  -0.00071   0.00034   2.65367
    R3        2.05210  -0.00012  -0.00016  -0.00042  -0.00058   2.05152
    R4        2.62800  -0.00001  -0.00043  -0.00070  -0.00113   2.62687
    R5        2.66721  -0.00093   0.00132  -0.00100   0.00032   2.66754
    R6        2.05502  -0.00005  -0.00010  -0.00012  -0.00022   2.05480
    R7        2.52822   0.00064  -0.00105   0.00043  -0.00062   2.52759
    R8        2.05809   0.00004   0.00044   0.00016   0.00060   2.05869
    R9        2.85736  -0.00024   0.00061  -0.00034   0.00028   2.85764
   R10        2.53855  -0.00118  -0.00050  -0.00285  -0.00335   2.53520
   R11        2.61418   0.00017   0.00090   0.00084   0.00174   2.61592
   R12        2.87967  -0.00052  -0.00019  -0.00041  -0.00060   2.87907
   R13        2.58265  -0.00030  -0.00028  -0.00107  -0.00135   2.58129
   R14        2.31506   0.00002  -0.00016  -0.00030  -0.00045   2.31461
   R15        2.07231  -0.00002   0.00036   0.00011   0.00047   2.07278
   R16        2.06250   0.00012   0.00010   0.00027   0.00037   2.06286
   R17        2.07074  -0.00027  -0.00006  -0.00084  -0.00090   2.06984
   R18        2.76217   0.00031   0.00041   0.00237   0.00278   2.76495
   R19        2.07351  -0.00019  -0.00046  -0.00055  -0.00101   2.07250
   R20        2.07170  -0.00016  -0.00034  -0.00053  -0.00087   2.07083
   R21        1.90815   0.00087   0.00021   0.00198   0.00219   1.91034
   R22        1.91131   0.00087   0.00030   0.00206   0.00237   1.91368
   R23        1.90730   0.00031  -0.00007   0.00033   0.00026   1.90756
    A1        2.06386  -0.00029  -0.00129  -0.00091  -0.00222   2.06164
    A2        2.10705   0.00021   0.00111   0.00132   0.00243   2.10948
[...]
 99140,0.00257040,-0.04907847,-0.05769995,-0.05528188,-0.00040492,-0.00
 046344,0.00141922,0.00521177,0.00449347,0.00741998,-0.00527357,-0.0011
 4939,-0.01551169,-0.00001447,-0.00018948,0.00012806,-0.00002039,0.0000
 1959,0.00003240,0.00342695,-0.00273163,0.00062568,-0.00621640,0.002131
 47,0.00012913,0.00064276,-0.00080119,-0.00074198,-0.00044450,-0.000079
 90,0.00020118,0.00006331,0.00004438,-0.00012021,-0.00002749,0.00084744
 ,0.00052410,0.05466681,0.05214274,0.00340049,0.00304731,-0.00305300,-0
 .11654199,-0.05454786,-0.24299336,0.00064167,0.00042711,-0.00017604,-0
 .01656670,-0.00826993,-0.02044148,0.00279635,0.00158645,0.00326631,0.0
 0013886,-0.00006002,-0.00004231,-0.00004628,-0.00002905,-0.00000532,-0
 .00190135,-0.00178026,0.00007354,0.00099053,0.00085977,0.00234534,0.00
 012649,0.00000320,0.00103883,0.00023311,0.00015517,0.00075502,-0.00001
 393,0.00004293,0.00007600,-0.00109972,-0.00047156,-0.00089671,0.126926
 72,0.05867893,0.25911441,-0.00939060,-0.00755234,-0.02171166,-0.000021
 09,0.00016055,0.00084721,-0.15141531,-0.05551089,-0.12300081,-0.001690
 46,-0.00608823,0.00201720,0.00368162,-0.00433433,0.00325568,0.00026054
 ,0.00000252,-0.00030822,-0.00001792,-0.00001044,0.00002828,-0.00029206
 ,0.00023789,-0.00134119,0.00973207,0.00743691,0.00991562,0.00057702,-0
 .00012698,-0.00007158,-0.00005164,0.00000876,0.00016016,-0.00012626,0.
 00004226,0.00015459,-0.00034160,0.00173683,0.00057221,-0.00044307,0.00
 080365,-0.00003468,0.15018513,-0.00982625,0.00151442,-0.01355417,0.000
 22200,-0.00033471,0.00051445,-0.05561957,-0.07012561,-0.05915954,-0.00
 616285,0.00380765,0.00190525,-0.00407608,0.00706600,0.00361872,0.00016
 454,0.00000165,-0.00024199,-0.00001159,-0.00000090,0.00002957,0.000129
 57,-0.00002603,-0.00115821,0.00934100,0.00120790,0.00969261,0.00014071
 ,0.00048903,0.00001004,-0.00010244,-0.00016520,0.00029952,-0.00007340,
 0.00001636,0.00008443,0.00185518,-0.00208391,-0.00005236,0.00077226,-0
 .00120552,-0.00018294,0.06339132,0.06018907,0.00318457,0.00185502,0.00
 711156,0.00029258,0.00018854,-0.00019395,-0.12210172,-0.05842256,-0.20
 797956,0.00096159,0.00120572,0.00088796,0.00090096,0.00186404,-0.00276
 702,0.00014833,0.00001265,-0.00018693,-0.00000796,-0.00000357,0.000026
 25,0.00021855,0.00022630,0.00023472,-0.01132933,-0.00391822,-0.0341336
 5,-0.00096785,-0.00031304,-0.00088732,-0.00017974,-0.00013126,0.000152
 94,-0.00008198,0.00000283,0.00008254,-0.00030953,-0.00054045,0.0004858
 1,-0.00016108,-0.00028087,0.00000381,0.12922176,0.05821872,0.23730464,
 0.00002687,-0.00001339,-0.00000886,-0.00002068,-0.00001419,0.00000360,
 0.00001600,0.00000860,-0.00001066,-0.00001680,-0.00002427,-0.00000420,
 0.00001574,0.00002233,-0.00004794,0.00538471,0.00477743,0.00256613,-0.
 21907938,-0.12919531,-0.01341807,0.00000266,-0.00002356,-0.00026994,0.
 00000241,-0.00000954,0.00003698,-0.00002365,-0.00000220,0.00004724,0.0
 0029226,-0.00020884,-0.00021126,-0.00005564,0.00011805,-0.00063208,-0.
 00001351,0.00002639,0.00000895,0.00000333,-0.00000150,0.00000920,0.000
 00300,0.00000554,0.00000080,0.23490783,-0.00005740,-0.00003417,-0.0000
 1844,-0.00008548,-0.00004552,0.00001636,0.00003932,0.00002352,-0.00000
 552,0.00010845,0.00011060,-0.00003822,0.00005551,0.00004623,-0.0000801
 0,-0.02393271,-0.01710727,-0.00264628,-0.13012575,-0.14745692,-0.01142
 190,0.00021852,0.00068497,0.00107555,-0.00003961,-0.00003097,0.0000410
 0,-0.00005008,-0.00000694,0.00007331,0.00173127,-0.00224079,0.00137944
 ,0.00284653,0.00286988,0.00118848,0.00001891,0.00001537,0.00001354,0.0
 0000778,-0.00000058,-0.00001102,-0.00000901,-0.00000673,-0.00000599,0.
 14203182,0.15677087,0.00003617,0.00002896,-0.00001057,0.00005950,0.000
 02338,-0.00000681,-0.00001847,-0.00000873,0.00000639,-0.00007164,-0.00
 014929,0.00005379,-0.00002818,-0.00002463,0.00003606,0.01832269,0.0140
 8904,0.00014195,-0.01253615,-0.01004445,-0.04402441,-0.00052787,-0.000
 66308,-0.00119985,0.00001803,0.00001333,-0.00000978,0.00002469,0.00000
 179,-0.00003320,-0.00134170,0.00196885,-0.00215399,-0.00065715,-0.0024
 8607,0.00000188,-0.00000578,-0.00000205,-0.00001946,-0.00000727,0.0000
 0327,0.00001109,0.00000846,0.00000578,0.00000244,0.01518339,0.00912220
 ,0.04785485,-0.00003530,-0.00000443,0.00004417,0.00000856,0.00000808,-
 0.00001715,-0.00001440,-0.00000573,0.00000453,0.00004227,-0.00000234,0
 .00002378,-0.00001923,-0.00000967,0.00005560,-0.00142111,-0.00323114,-
 0.00327743,-0.05020037,-0.00484434,-0.02805872,0.00010847,-0.00027219,
 -0.00014052,0.00000265,0.00000960,-0.00005000,0.00002615,-0.00000086,-
 0.00005426,-0.00032427,-0.00011805,0.00025571,0.00008041,0.00124009,0.
 00056286,0.00000476,-0.00003033,-0.00000601,-0.00000280,0.00000051,-0.
 00001034,-0.00000582,-0.00000712,-0.00000074,-0.00245417,-0.00664559,-
 0.02667562,0.04926768,-0.00008469,-0.00004105,0.00008507,-0.00015905,-
 0.00008825,-0.00005907,0.00001442,0.00002565,-0.00002679,0.00034444,-0
 .00023492,0.00034311,0.00001856,0.00006004,0.00002703,0.00398487,0.008
 87133,0.03094946,-0.00448853,-0.06495761,-0.07009388,-0.00150205,-0.00
 065802,-0.00021685,-0.00002427,-0.00002381,-0.00001304,-0.00002911,-0.
 00001286,0.00000526,0.00056590,-0.00383837,0.00124843,-0.00191465,0.00
 009186,-0.00285264,-0.00000585,-0.00002208,-0.00000237,0.00001472,-0.0
 0000859,-0.00000344,-0.00001585,-0.00001016,-0.00000492,-0.00121475,-0
 .00526642,-0.01994218,0.00748735,0.07050210,0.00011192,0.00006237,-0.0
 0010796,0.00011876,0.00008177,0.00006613,-0.00003996,-0.00002964,0.000
 02416,-0.00030744,0.00016526,-0.00021160,-0.00002336,-0.00005957,0.000
 00707,-0.00031910,-0.00547830,-0.01922114,-0.02904815,-0.07055713,-0.2
 9799652,0.00085374,0.00016261,0.00030268,0.00003817,0.00002770,0.00000
 189,0.00003321,0.00001619,-0.00001629,-0.00112905,0.00315973,-0.000772
 34,0.00109074,0.00003853,0.00337019,-0.00001178,0.00000905,0.00000168,
 -0.00001190,0.00000245,0.00001157,0.00001874,0.00001441,0.00000852,-0.
 00012439,-0.00046798,-0.00079186,0.03031243,0.07483789,0.32198338,0.00
 004227,0.00001334,0.00002249,0.00006204,0.00003314,-0.00000794,-0.0000
 3467,-0.00001912,0.00000844,-0.00009540,-0.00003901,-0.00004041,-0.000
 04100,-0.00001510,0.00005042,-0.00669119,-0.00132978,0.00396659,-0.226
 28248,0.10791778,0.06486240,0.00040216,0.00019462,-0.00049007,0.000029
 12,0.00001298,-0.00003791,0.00003756,-0.00000737,-0.00005033,0.0005083
 1,-0.00101357,0.00007633,0.00217884,0.00198865,-0.00137295,-0.00002116
 ,0.00000058,-0.00000900,-0.00000803,0.00000234,-0.00000236,0.00000191,
 0.00000413,0.00000324,-0.01905448,0.01399998,0.00796556,0.00445949,-0.
 00317780,-0.00098677,0.24324226,-0.00009330,0.00001752,0.00000431,-0.0
 0001677,-0.00001555,0.00000167,0.00000842,0.00000815,0.00000155,0.0001
 0574,0.00008595,0.00001024,0.00001701,-0.00001841,0.00002407,0.0224246
 3,-0.00794344,-0.01709935,0.10585052,-0.11505900,-0.03684093,-0.000436
 11,0.00026651,0.00009955,-0.00003033,-0.00000046,-0.00001762,0.0000005
 3,0.00000852,-0.00002398,-0.00167238,0.00110356,0.00016310,0.00235649,
 -0.00675060,0.00577761,0.00005106,-0.00005378,-0.00001457,0.00000228,0
 .00000277,-0.00000840,-0.00000588,-0.00001272,-0.00000444,-0.01612536,
 0.01224670,0.00719452,0.00612584,-0.00455954,-0.00169589,-0.11830890,0
 .12098583,-0.00003444,-0.00000089,0.00002274,-0.00003105,-0.00001410,-
 0.00001501,0.00000899,0.00000413,0.00000385,0.00006931,-0.00002844,0.0
 0007079,0.00000801,0.00001258,0.00000840,-0.01673284,0.00413218,0.0070
 7157,0.06670662,-0.03890996,-0.07581461,0.00002876,-0.00047187,0.00032
 412,-0.00001626,-0.00000409,-0.00001365,-0.00000522,-0.00000474,-0.000
 00599,0.00057418,-0.00031705,-0.00070265,-0.00133829,0.00606846,-0.000
 76475,0.00001200,-0.00001115,-0.00001078,0.00000023,0.00000080,-0.0000
 0775,-0.00000564,-0.00000799,-0.00000392,-0.00250327,0.00170471,-0.000
 22274,0.02707063,-0.01451959,-0.00663355,-0.07378491,0.04081662,0.0771
 1428,-0.00328733,-0.00311330,0.00304744,0.00059251,0.00117091,-0.00175
 647,-0.00056311,0.00010338,-0.00159218,-0.01294353,-0.01254646,-0.0275
 3997,-0.00003512,0.00038939,-0.00015384,-0.00077182,0.00015868,0.00119
 667,0.00011724,0.00012350,0.00008568,-0.07639463,-0.02568500,-0.068352
 57,0.00026199,-0.00002774,0.00029578,-0.00001946,0.00006419,0.00021523
 ,0.00213975,0.00301165,-0.00348935,-0.00008195,-0.00093096,-0.00047549
 ,0.00013654,0.00016011,-0.00007828,0.00030132,-0.00033496,0.00114888,-
 0.00045450,-0.00023437,0.00009864,0.00002981,-0.00004082,-0.00001710,-
 0.00002640,-0.00000125,0.00001536,-0.00000081,-0.00001239,-0.00002064,
 0.08152602,-0.00347308,-0.00100590,0.00171011,0.00002178,0.00018384,-0
 .00114734,0.00005306,0.00072476,-0.00133479,-0.00429697,-0.00425218,-0
 .01504223,-0.00011310,-0.00014508,-0.00032449,0.00691710,-0.00194014,-
 0.00125672,-0.00155467,-0.00101337,-0.00064914,-0.02565080,-0.07639463
 ,-0.07641455,0.00013079,-0.00004153,0.00083115,-0.00015217,0.00000050,
 0.00037114,0.00575908,0.00227198,0.03788146,-0.00167499,0.00259025,0.0
 0028966,0.00022325,-0.00013471,0.00001956,-0.00009300,0.00003255,0.000
 81413,-0.00017495,-0.00031078,0.00003080,-0.00000160,-0.00037881,0.000
 40818,0.00004737,0.00013200,-0.00006798,0.00004941,0.00002609,-0.00002
 921,0.03120525,0.08440518,0.00033183,0.00006568,0.00044007,0.00173476,
 0.00136680,0.00091828,0.00050852,0.00055253,-0.00028119,0.00171733,0.0
 0000479,0.00175595,-0.00062102,0.00024577,0.00002730,-0.00646087,0.000
 41766,0.00200060,0.00085302,0.00049416,0.00006420,-0.07207711,-0.07607
 355,-0.24742468,0.00021810,-0.00019077,0.00068797,-0.00003352,0.000027
 28,0.00010861,-0.00140288,0.00895231,-0.02370877,0.00179729,-0.0010022
 1,-0.00041686,0.00013632,0.00008476,0.00011847,0.00003016,-0.00056971,
 0.00056971,0.00003512,-0.00004840,0.00000735,-0.00003231,0.00020636,-0
 .00026847,-0.00002019,-0.00003646,-0.00001335,-0.00003939,-0.00004038,
 0.00003305,0.07745870,0.07050608,0.27697173,0.00157210,-0.00053654,0.0
 0053230,-0.00078920,-0.00043595,-0.00155875,0.00038876,-0.00101699,0.0
 0027520,-0.02205514,0.01108793,0.01247184,0.00011097,-0.00130183,0.000
 34006,0.00075460,-0.00055314,0.00121232,-0.00045345,0.00069483,0.00018
 485,-0.18004472,0.11115522,0.07289074,-0.00011829,0.00034778,-0.000044
 88,-0.00000107,-0.00009120,-0.00023043,-0.00405133,0.00725320,-0.00139
 509,-0.00193760,-0.00162265,0.00135292,-0.00042470,0.00048958,-0.00038
 479,-0.00024658,0.00034283,0.00017146,-0.00005295,0.00009423,-0.000012
 18,0.00001266,-0.00000717,0.00000597,-0.00000046,-0.00002240,0.0000182
 3,0.00008074,0.00019756,-0.00025494,0.00982694,-0.00767022,-0.00421412
 ,0.19703684,-0.00041061,-0.00032263,-0.00003251,-0.00106061,-0.0010030
 3,-0.00013346,0.00088423,-0.00019007,0.00027107,-0.01341600,0.01269889
 ,0.00800216,0.00085476,-0.00085976,-0.00035823,0.00585327,-0.00248745,
 -0.00251645,0.00006695,0.00018525,0.00012463,0.10108420,-0.13207471,-0
 .06053076,-0.00061069,-0.00017613,0.00028085,-0.00019599,-0.00003550,0
 .00013333,0.02337234,-0.02554923,-0.00558249,-0.00249907,0.00293110,-0
 .00124611,-0.00005542,0.00019506,-0.00018427,-0.00021237,0.00034557,0.
 00021647,-0.00005917,0.00007624,-0.00005291,-0.00008021,0.00003722,-0.
 00000534,-0.00008289,0.00003828,0.00008435,-0.00022713,0.00027148,-0.0
 0004739,0.00677092,-0.00533480,-0.00496286,-0.11871245,0.15475690,-0.0
 0147894,-0.00080366,-0.00006360,0.00053380,0.00074180,-0.00004578,0.00
 073073,0.00066928,-0.00054584,0.00196555,0.00191987,0.00001336,-0.0006
 6093,0.00011883,-0.00022034,-0.00316186,0.00356470,0.00181426,0.000482
 15,-0.00061577,-0.00005496,0.07799844,-0.07030626,-0.09542825,0.000043
 56,-0.00029118,0.00072938,0.00009083,0.00004929,0.00000990,-0.01787735
 ,0.01755607,0.00789401,0.00150277,-0.00196347,-0.00198875,0.00005313,-
 0.00011072,-0.00010102,0.00032585,-0.00034464,0.00007481,-0.00002090,0
 .00000822,-0.00001290,0.00004592,-0.00004921,0.00001397,0.00006643,-0.
 00003978,-0.00005731,0.00010881,-0.00041822,0.00030344,0.02058173,-0.0
 1663516,-0.01116696,-0.08149313,0.06341871,0.10177133,0.00035688,0.000
 23270,-0.00003440,0.00027780,0.00030835,0.00145848,0.00099400,-0.00059
 037,0.00129551,-0.00006133,-0.00020660,-0.00059452,0.01178448,0.000842
 05,0.01552368,-0.00008105,-0.00003123,0.00011257,0.00000954,0.00000871
 ,-0.00001707,-0.00000508,-0.00012424,0.00003981,-0.00079271,-0.0010884
 6,0.00201537,-0.23471699,0.00499350,-0.21012177,0.00007868,0.00008225,
 -0.00009759,0.00003778,0.00002124,-0.00005319,-0.00013758,0.00021203,-
 0.00003146,-0.00038811,-0.00022624,-0.00012972,-0.00008805,-0.00004811
 ,0.00018675,0.00000152,0.00000467,-0.00000239,-0.00000208,0.00000266,-
 0.00000349,-0.00000542,0.00000254,0.00000069,-0.00001409,-0.00001781,-
 0.00000171,0.00000050,0.00001091,0.00002625,0.23591564,-0.00019321,-0.
 00046765,0.00080641,-0.00105715,-0.00089140,0.00136149,-0.00071647,0.0
 0221447,-0.00123638,0.00052004,-0.00028383,-0.00077501,0.01273786,-0.0
 0296718,-0.00585609,0.00010568,0.00008708,-0.00011917,-0.00001252,-0.0
 0001075,0.00001640,0.00010817,0.00022795,0.00005035,0.00017701,0.00097
 611,0.00225560,0.02122007,-0.03788606,0.08255286,-0.00017747,-0.000131
 56,-0.00004006,-0.00006095,-0.00005336,0.00003904,0.00007154,-0.000127
 42,-0.00009800,-0.00125301,-0.00026409,-0.00010644,-0.00002256,0.00005
 560,0.00006010,-0.00000671,-0.00000725,0.00000568,0.00000750,0.0000001
 6,-0.00000295,0.00001088,0.00000100,0.00000307,-0.00008014,-0.00006174
 ,-0.00004054,0.00002544,-0.00001374,-0.00002222,-0.01626728,0.03460420
 ,0.00056084,0.00026117,0.00088619,-0.00178211,-0.00267576,0.00247524,-
 0.00074449,-0.00103675,-0.00073736,0.00061495,-0.00074498,-0.00170847,
 -0.02300455,0.00197734,-0.02237078,0.00022370,0.00005401,-0.00024781,-
 0.00001571,-0.00001564,0.00003165,0.00003253,0.00032157,0.00003449,0.0
 0181811,0.00386531,-0.00559803,-0.18756183,0.05254367,-0.24971666,-0.0
 0019885,-0.00017734,0.00015698,-0.00013020,-0.00002330,0.00010689,0.00
 001592,0.00022825,0.00005638,0.00024855,0.00106000,0.00035011,0.000178
 03,0.00007173,-0.00030031,-0.00000561,-0.00001079,0.00000607,0.0000055
 9,-0.00000488,0.00000590,0.00000839,0.00000004,-0.00000017,0.00000798,
 -0.00000699,-0.00000304,0.00000045,-0.00004073,-0.00000350,0.20637803,
 -0.05569159,0.27484357,0.00000747,-0.00017687,-0.00114507,0.00328228,-
 0.00022416,0.00151103,-0.00065871,0.00127989,0.00018432,-0.00041082,-0
 .00118465,0.00085104,-0.01472322,-0.01315907,0.00786587,-0.00021049,-0
 .00007842,0.00022944,0.00001533,0.00001539,-0.00002984,-0.00018618,-0.
 00005188,0.00024722,-0.00050273,0.00136998,-0.00395209,-0.21830389,-0.
 19687513,-0.02969213,0.00017598,0.00015715,-0.00010959,0.00011268,0.00
 002598,-0.00008546,0.00008696,-0.00015914,0.00002756,-0.00002753,0.000
 46798,-0.00012214,-0.00005812,0.00007434,-0.00006790,0.00000467,0.0000
 0985,-0.00000403,-0.00000515,0.00000164,-0.00000459,-0.00000787,0.,0.0
 0000150,0.00002183,0.00003754,0.00000559,-0.00009039,-0.00003319,0.000
 00683,-0.01316434,-0.01518101,0.00332384,0.24466405,0.00049391,0.00070
 177,0.00032760,-0.00155029,0.00160273,0.00215908,-0.00023283,-0.000308
 44,0.00061731,-0.00113481,0.00125814,-0.00119728,-0.00249247,-0.007756
 48,-0.00556986,0.00009582,0.00000403,-0.00008970,-0.00001252,-0.000000
 38,0.00002460,0.00028550,-0.00018065,0.00003153,0.00221056,-0.00070916
 ,-0.00223052,-0.23373841,-0.23805821,0.00292552,-0.00014138,-0.0000881
 9,0.00009542,-0.00003667,-0.00001549,0.00002243,0.00011986,-0.00009151
 ,0.00000263,0.00039738,-0.00048346,-0.00023470,0.00006740,-0.00012688,
 -0.00000541,-0.00000149,-0.00000473,0.00000307,0.00000134,-0.00000473,
 0.00000313,0.00000565,-0.00000176,-0.00000150,-0.00001422,-0.00001658,
 -0.00000678,0.00005317,0.00004482,-0.00000660,0.01189116,0.00492011,-0
 .00000004,0.22373720,0.23929860,-0.00097956,-0.00035675,0.00018741,0.0
 0038463,0.00133894,-0.00654269,-0.00005529,-0.00004879,-0.00152585,0.0
 0166817,0.00082659,0.00132640,0.02938077,0.02818517,0.00461244,0.00005
 552,0.00006433,-0.00006290,-0.00000173,-0.00000974,0.00000252,-0.00004
 280,0.00005255,-0.00035502,0.00046957,-0.00181770,0.00430969,-0.035968
 92,-0.00780700,-0.06557460,-0.00000560,-0.00002247,-0.00003074,-0.0000
 4072,-0.00002026,0.00002755,-0.00017666,-0.00016470,0.00003103,0.00014
 680,-0.00001449,0.00004897,0.00007177,-0.00007423,0.00016394,-0.000003
 20,-0.00000334,0.00000056,0.00000389,0.00000388,-0.00000220,0.00000289
 ,0.00000166,0.00000135,-0.00003299,-0.00002391,-0.00001090,0.00004688,
 -0.00000863,-0.00002333,-0.01593064,-0.02324028,0.00169849,0.02098589,
 0.00310944,0.06170939,-0.00028728,0.00034271,-0.00023732,-0.00018395,0
 .00005308,0.00037471,-0.00042466,-0.00013922,0.00011198,0.00212271,0.0
 0002246,-0.00025970,0.00010208,0.00004529,0.00044245,-0.01589423,0.013
 99791,-0.00534321,-0.00099095,-0.00090820,-0.00170116,0.00056606,-0.00
 430760,-0.00069851,-0.00003833,0.00004170,-0.00044188,0.00009516,0.000
 00592,-0.00028798,-0.25492038,0.20432931,0.07397818,0.00195930,-0.0003
 2039,0.00632810,0.00014875,-0.00019704,-0.00011846,0.00001125,-0.00001
 345,-0.00011454,0.00000816,-0.00003304,0.00000226,0.00001484,-0.000079
 00,0.00026892,0.00051112,0.00020568,-0.00060131,0.00119783,-0.00044123
 ,0.00024658,-0.00036118,0.00042872,0.00007639,0.00048180,-0.00124176,0
 .00013033,0.,0.00004428,0.00002645,-0.00002181,-0.00000386,0.00002132,
 0.26590369,-0.00036636,0.00054854,-0.00007479,-0.00034397,0.00000462,0
 .00043664,-0.00073354,-0.00034811,0.00022959,0.00144064,0.00088168,-0.
 00047163,0.00024667,-0.00002606,0.00070823,-0.00772164,0.00414161,-0.0
 0384304,-0.00204571,-0.00101662,-0.00007568,0.01599840,-0.01364527,-0.
 00814912,0.00001296,0.00011782,-0.00081821,0.00021979,-0.00002245,-0.0
 0052699,0.20576818,-0.21181513,-0.02172287,-0.00091203,0.00370977,0.00
 473040,0.00009154,-0.00039598,-0.00034034,-0.00003583,0.00002584,-0.00
 012584,0.00002252,-0.00001476,0.00001894,-0.00006725,-0.00021824,0.000
 45778,0.00032699,0.00000498,-0.00030598,-0.00009569,-0.00060883,0.0016
 2542,-0.00013638,0.00066311,0.00004748,0.00022878,-0.00353378,0.003560
 11,-0.00001241,0.00007934,0.00004567,-0.00005341,0.00001644,0.00002975
 ,-0.21183226,0.22145148,0.00006558,0.00013001,0.00025510,0.00040479,-0
 .00012127,-0.00017280,-0.00025427,-0.00006005,0.00015999,-0.00024972,-
 0.00078149,0.00066639,0.00000062,0.00003338,0.00022252,0.01343160,-0.0
 2619711,0.00021836,-0.00025887,-0.00127156,-0.00160425,-0.01822578,0.0
 1248708,0.00568136,0.00001349,0.00000682,-0.00037695,0.00016399,-0.000
 04434,-0.00030914,0.07141212,-0.01784929,-0.05853271,0.00730244,0.0036
 4981,-0.00269385,0.00007466,-0.00028439,-0.00027203,-0.00010371,0.0000
 6988,-0.00012354,0.00000983,0.00000639,-0.00000691,-0.00063042,-0.0000
 6215,0.00061206,-0.00009464,0.00031577,0.00004098,-0.00025352,0.002068
 83,-0.00075805,-0.00064321,0.00007025,-0.00040906,0.00008507,0.0031705
 9,-0.00291193,-0.00001918,0.00007775,0.00003418,-0.00002727,0.00002061
 ,0.00000849,-0.07220361,0.02456447,0.06027179\\-0.00001803,-0.00001132
 ,-0.00000911,0.00001432,0.00001014,-0.00000948,0.00001483,0.00001141,-
 0.00001634,0.00000521,0.00000507,0.00002607,-0.00002193,-0.00001348,-0
 .00002157,-0.00000405,0.00000097,0.00000307,-0.00000142,-0.00000180,0.
 00000029,-0.00000257,-0.00000349,-0.00000275,0.00000626,-0.00000092,0.
 00002494,0.00000158,0.00000779,0.00000725,0.00000258,0.00000209,-0.000
 00419,0.00000124,-0.00000103,-0.00000037,0.00000206,0.00000017,0.00000
 072,-0.00000131,-0.00000027,0.00000113,-0.00000065,-0.00000108,0.00000
 179,0.00000046,0.00000028,-0.00000023,0.00000072,-0.00000033,-0.000000
 10,0.,0.00000051,-0.00000023,0.00000065,0.00000047,0.00000023,0.000000
 93,0.00000042,0.00000050,0.00000065,-0.00000360,-0.00000097,-0.0000005
 6,-0.00000122,-0.00000036,-0.00000098,-0.00000078,-0.00000027\\\@


 ONE BIG VICE IN A MAN IS APT TO KEEP OUT MANY SMALLER ONES.

                           -- BRET HARTE
 Job cpu time:  0 days  0 hours 54 minutes 23.0 seconds.
 File lengths (MBytes):  RWF=    126 Int=      0 D2E=      0 Chk=      4 Scr=      1
 Normal termination of Gaussian 09 at Fri Feb 16 22:06:59 2018.
